         Total DFT energy =       -1.118776262399

 Vector    1  Occ=2.000000D+00  E=-3.514997D-01  Symmetry=a1g

 Vector    2  Occ=0.000000D+00  E= 9.795514D-02  Symmetry=a2u

 Vector    3  Occ=0.000000D+00  E= 5.648741D-01  Symmetry=a1g

 Vector    4  Occ=0.000000D+00  E= 1.070185D+00  Symmetry=a2u

@ Step       Energy      Delta E   Gmax     Grms     Xrms     Xmax   Walltime
@ ---- ---------------- -------- -------- -------- -------- -------- --------
@    0      -1.11877626  0.0D+00  0.01046  0.01046  0.00000  0.00000      0.2
         Total DFT energy =       -1.118907395959

 Vector    1  Occ=2.000000D+00  E=-3.480388D-01  Symmetry=a1g

 Vector    2  Occ=0.000000D+00  E= 9.219099D-02  Symmetry=a2u

 Vector    3  Occ=0.000000D+00  E= 5.734088D-01  Symmetry=a1g

 Vector    4  Occ=0.000000D+00  E= 1.047159D+00  Symmetry=a2u

         Total DFT energy =       -1.118923383104

 Vector    1  Occ=2.000000D+00  E=-3.489165D-01  Symmetry=a1g

 Vector    2  Occ=0.000000D+00  E= 9.366993D-02  Symmetry=a2u

 Vector    3  Occ=0.000000D+00  E= 5.712158D-01  Symmetry=a1g

 Vector    4  Occ=0.000000D+00  E= 1.052919D+00  Symmetry=a2u

@    1      -1.11892338 -1.5D-04  0.00005  0.00005  0.00821  0.01422      0.4
         Total DFT energy =       -1.118923387118

 Vector    1  Occ=2.000000D+00  E=-3.489033D-01  Symmetry=a1g

 Vector    2  Occ=0.000000D+00  E= 9.364790D-02  Symmetry=a2u

 Vector    3  Occ=0.000000D+00  E= 5.712484D-01  Symmetry=a1g

 Vector    4  Occ=0.000000D+00  E= 1.052833D+00  Symmetry=a2u

         Total DFT energy =     -1.118923387118
@    2      -1.11892339 -4.0D-09  0.00000  0.00000  0.00004  0.00007      0.5
@    2      -1.11892339 -4.0D-09  0.00000  0.00000  0.00004  0.00007      0.5

 Output coordinates in angstroms (scale by  1.889725989 to convert to a.u.)

  No.       Tag          Charge          X              Y              Z
 ---- ---------------- ---------- -------------- -------------- --------------
    1 H                    1.0000     0.00000000     0.00000000    -0.37826473
    2 H                    1.0000     0.00000000     0.00000000     0.37826473

         Total DFT energy =       -1.118923403465

 Vector    1  Occ=2.000000D+00  E=-3.489033D-01

 Vector    2  Occ=0.000000D+00  E= 9.364805D-02

 Vector    3  Occ=0.000000D+00  E= 5.712485D-01

 Vector    4  Occ=0.000000D+00  E= 1.052833D+00

 Zero-Point correction to Energy  =    6.106 kcal/mol  (  0.009731 au)
 Thermal correction to Energy     =    7.587 kcal/mol  (  0.012091 au)
 Thermal correction to Enthalpy   =    8.179 kcal/mol  (  0.013034 au)
 Total Entropy                    =   31.191 cal/mol-K
   - Translational                =   28.068 cal/mol-K (mol. weight =   2.0156)
   - Rotational                   =    3.124 cal/mol-K (symmetry #  =        2)
   - Vibrational                  =    0.000 cal/mol-K
   - Translational                  =    2.979 cal/mol-K
   - Rotational                     =    1.986 cal/mol-K
   - Vibrational                    =    0.000 cal/mol-K
 P.Frequency       -0.00       -0.00        0.00        0.00        0.00     4273.56

 Normal Eigenvalue ||           Projected Infra Red Intensities
  Mode   [cm**-1]  || [atomic units] [(debye/angs)**2] [(KM/mol)] [arbitrary]
 ------ ---------- || -------------- ----------------- ---------- -----------
    1       -0.000 ||    0.000000           0.000         0.000      30.000
    2       -0.000 ||    0.000000           0.000         0.000       7.418
    3        0.000 ||    0.000000           0.000         0.000       0.000
    4        0.000 ||    0.000000           0.000         0.000       0.000
    5        0.000 ||    0.000000           0.000         0.000      22.582
    6     4273.555 ||    0.000000           0.000         0.000       0.000
 ----------------------------------------------------------------------------

         Total DFT energy =       -1.127616578343

                       DFT Final Molecular Orbital Analysis
                       ------------------------------------

 Vector    1  Occ=2.000000D+00  E=-5.909228D-01  Symmetry=a1g

 Vector    2  Occ=0.000000D+00  E= 1.662690D-01  Symmetry=a2u

 Vector    3  Occ=0.000000D+00  E= 3.074306D-01  Symmetry=a1g

 Vector    4  Occ=0.000000D+00  E= 6.440618D-01  Symmetry=a2u

 Vector    5  Occ=0.000000D+00  E= 2.436553D+00  Symmetry=a1g

 Vector    6  Occ=0.000000D+00  E= 2.726799D+00  Symmetry=a2u

     Multipole analysis of the density
     ---------------------------------

     L   x y z        total         alpha         beta         nuclear
     -   - - -        -----         -----         ----         -------
     0   0 0 0     -0.000000     -1.000000     -1.000000      2.000000

     1   1 0 0      0.000000      0.000000      0.000000      0.000000
     1   0 1 0      0.000000      0.000000      0.000000      0.000000
     1   0 0 1      0.000000      0.000000      0.000000      0.000000

     2   2 0 0     -1.538161     -0.769081     -0.769081      0.000000
     2   1 1 0      0.000000      0.000000      0.000000      0.000000
     2   1 0 1      0.000000      0.000000      0.000000      0.000000
     2   0 2 0     -1.538161     -0.769081     -0.769081      0.000000
     2   0 1 1      0.000000      0.000000      0.000000      0.000000

 Total times  cpu:        0.8s     wall:        1.1s
