         Total DFT energy =      -56.178181991556
@ Step       Energy      Delta E   Gmax     Grms     Xrms     Xmax   Walltime
@ ---- ---------------- -------- -------- -------- -------- -------- --------
@    0     -56.17818199  0.0D+00  0.03494  0.01925  0.00000  0.00000      1.0
         Total DFT energy =      -56.184596222282
         Total DFT energy =      -56.184845515712
@    1     -56.18484552 -6.7D-03  0.00271  0.00148  0.06876  0.13062      2.3
         Total DFT energy =      -56.184879230699

 Vector   11  Occ=0.000000D+00  E= 1.372961D-01  Symmetry=e

 Vector   12  Occ=0.000000D+00  E= 1.854318D-01  Symmetry=a1

 Vector   13  Occ=0.000000D+00  E= 4.677597D-01  Symmetry=e

 Vector   14  Occ=0.000000D+00  E= 4.677597D-01  Symmetry=e

 Vector   15  Occ=0.000000D+00  E= 5.943669D-01  Symmetry=a1

         Total DFT energy =      -56.184879787508

 Vector    1  Occ=2.000000D+00  E=-1.395819D+01  Symmetry=a1

 Vector    2  Occ=2.000000D+00  E=-7.402331D-01  Symmetry=a1

 Vector    3  Occ=2.000000D+00  E=-3.826640D-01  Symmetry=e

 Vector    4  Occ=2.000000D+00  E=-3.826640D-01  Symmetry=e

 Vector    5  Occ=2.000000D+00  E=-1.911428D-01  Symmetry=a1

 Vector    6  Occ=0.000000D+00  E= 1.766626D-03  Symmetry=a1

 Vector    7  Occ=0.000000D+00  E= 7.900642D-02  Symmetry=e

 Vector    8  Occ=0.000000D+00  E= 7.900642D-02  Symmetry=e

 Vector    9  Occ=0.000000D+00  E= 1.068217D-01  Symmetry=a1

 Vector   10  Occ=0.000000D+00  E= 1.374121D-01  Symmetry=e

 Vector   11  Occ=0.000000D+00  E= 1.374121D-01  Symmetry=e

 Vector   12  Occ=0.000000D+00  E= 1.856454D-01  Symmetry=a1

 Vector   13  Occ=0.000000D+00  E= 4.678747D-01  Symmetry=e

 Vector   14  Occ=0.000000D+00  E= 4.678747D-01  Symmetry=e

 Vector   15  Occ=0.000000D+00  E= 5.947895D-01  Symmetry=a1

@    2     -56.18487979 -3.4D-05  0.00040  0.00014  0.00452  0.00852      3.4
         Total DFT energy =      -56.184880355621

 Vector    1  Occ=2.000000D+00  E=-1.395806D+01  Symmetry=a1

 Vector    2  Occ=2.000000D+00  E=-7.401700D-01  Symmetry=a1

 Vector    3  Occ=2.000000D+00  E=-3.828456D-01  Symmetry=e

 Vector    4  Occ=2.000000D+00  E=-3.828456D-01  Symmetry=e

 Vector    5  Occ=2.000000D+00  E=-1.909174D-01  Symmetry=a1

 Vector    6  Occ=0.000000D+00  E= 1.880250D-03  Symmetry=a1

 Vector    7  Occ=0.000000D+00  E= 7.896661D-02  Symmetry=e

 Vector    8  Occ=0.000000D+00  E= 7.896661D-02  Symmetry=e

 Vector    9  Occ=0.000000D+00  E= 1.068217D-01  Symmetry=a1

 Vector   10  Occ=0.000000D+00  E= 1.375418D-01  Symmetry=e

 Vector   11  Occ=0.000000D+00  E= 1.375418D-01  Symmetry=e

 Vector   12  Occ=0.000000D+00  E= 1.854511D-01  Symmetry=a1

 Vector   13  Occ=0.000000D+00  E= 4.681659D-01  Symmetry=e

 Vector   14  Occ=0.000000D+00  E= 4.681659D-01  Symmetry=e

 Vector   15  Occ=0.000000D+00  E= 5.942974D-01  Symmetry=a1

         Total DFT energy =    -56.184880355621
@    3     -56.18488036 -5.7D-07  0.00001  0.00001  0.00082  0.00225      4.1
         Total DFT energy =      -56.184880355675

 Vector    1  Occ=2.000000D+00  E=-1.395805D+01  Symmetry=a1

 Vector    2  Occ=2.000000D+00  E=-7.401675D-01  Symmetry=a1

 Vector    3  Occ=2.000000D+00  E=-3.828501D-01  Symmetry=e

 Vector    4  Occ=2.000000D+00  E=-3.828501D-01  Symmetry=e

 Vector    5  Occ=2.000000D+00  E=-1.909077D-01  Symmetry=a1

 Vector    6  Occ=0.000000D+00  E= 1.884395D-03  Symmetry=a1

 Vector    7  Occ=0.000000D+00  E= 7.896605D-02  Symmetry=e

 Vector    8  Occ=0.000000D+00  E= 7.896605D-02  Symmetry=e

 Vector    9  Occ=0.000000D+00  E= 1.068226D-01  Symmetry=a1

 Vector   10  Occ=0.000000D+00  E= 1.375478D-01  Symmetry=e

 Vector   11  Occ=0.000000D+00  E= 1.375478D-01  Symmetry=e

 Vector   12  Occ=0.000000D+00  E= 1.854474D-01  Symmetry=a1

 Vector   13  Occ=0.000000D+00  E= 4.681770D-01  Symmetry=e

 Vector   14  Occ=0.000000D+00  E= 4.681770D-01  Symmetry=e

 Vector   15  Occ=0.000000D+00  E= 5.942861D-01  Symmetry=a1

         Total DFT energy =    -56.184880355675
@    4     -56.18488036 -5.4D-11  0.00000  0.00000  0.00002  0.00007      4.7
@    4     -56.18488036 -5.4D-11  0.00000  0.00000  0.00002  0.00007      4.7

 Output coordinates in angstroms (scale by  1.889725989 to convert to a.u.)

  No.       Tag          Charge          X              Y              Z
 ---- ---------------- ---------- -------------- -------------- --------------
    1 N                    7.0000     0.00000000     0.00000000     0.12603892
    2 H                    1.0000     0.67978310     0.67978310    -0.25998776
    3 H                    1.0000     0.24881788    -0.92860098    -0.25998776
    4 H                    1.0000    -0.92860098     0.24881788    -0.25998776

         Total DFT energy =      -56.184880592329

 Vector    1  Occ=2.000000D+00  E=-1.395805D+01

 Vector    2  Occ=2.000000D+00  E=-7.401703D-01

 Vector    3  Occ=2.000000D+00  E=-3.828525D-01

 Vector    4  Occ=2.000000D+00  E=-3.828525D-01

 Vector    5  Occ=2.000000D+00  E=-1.909107D-01

 Vector    6  Occ=0.000000D+00  E= 1.883455D-03

 Vector    7  Occ=0.000000D+00  E= 7.896540D-02

 Vector    8  Occ=0.000000D+00  E= 7.896543D-02

 Vector    9  Occ=0.000000D+00  E= 1.068217D-01

 Vector   10  Occ=0.000000D+00  E= 1.375469D-01

 Vector   11  Occ=0.000000D+00  E= 1.375469D-01

 Vector   12  Occ=0.000000D+00  E= 1.854464D-01

 Vector   13  Occ=0.000000D+00  E= 4.681758D-01

 Vector   14  Occ=0.000000D+00  E= 4.681759D-01

 Vector   15  Occ=0.000000D+00  E= 5.942849D-01

 Zero-Point correction to Energy  =   20.547 kcal/mol  (  0.032743 au)
 Thermal correction to Energy     =   22.345 kcal/mol  (  0.035609 au)
 Thermal correction to Enthalpy   =   22.937 kcal/mol  (  0.036553 au)
 Total Entropy                    =   46.073 cal/mol-K
   - Translational                =   34.425 cal/mol-K (mol. weight =  17.0265)
   - Rotational                   =   11.562 cal/mol-K (symmetry #  =        3)
   - Vibrational                  =    0.085 cal/mol-K
   - Translational                  =    2.979 cal/mol-K
   - Rotational                     =    2.979 cal/mol-K
   - Vibrational                    =    0.399 cal/mol-K
 P.Frequency       -0.00       -0.00       -0.00        0.00        0.00        0.00
 P.Frequency     1058.03     1672.46     1672.46     3245.38     3365.60     3365.60

 Normal Eigenvalue ||           Projected Infra Red Intensities
  Mode   [cm**-1]  || [atomic units] [(debye/angs)**2] [(KM/mol)] [arbitrary]
 ------ ---------- || -------------- ----------------- ---------- -----------
    1       -0.000 ||    0.000147           0.003         0.144       0.040
    2       -0.000 ||    0.075899           1.751        73.990      20.430
    3       -0.000 ||    0.000250           0.006         0.244       0.067
    4        0.000 ||    0.014578           0.336        14.211       3.924
    5        0.000 ||    0.061228           1.413        59.688      16.481
    6        0.000 ||    0.000057           0.001         0.055       0.015
    7     1058.030 ||    0.211245           4.874       205.932      56.861
    8     1672.458 ||    0.032358           0.747        31.544       8.710
    9     1672.459 ||    0.032357           0.747        31.543       8.710
   10     3245.383 ||    0.015024           0.347        14.647       4.044
   11     3365.597 ||    0.001335           0.031         1.301       0.359
   12     3365.597 ||    0.001335           0.031         1.301       0.359
 ----------------------------------------------------------------------------

         Total DFT energy =      -56.186693534144

                       DFT Final Molecular Orbital Analysis
                       ------------------------------------

 Vector    1  Occ=2.000000D+00  E=-1.556014D+01  Symmetry=a1

 Vector    2  Occ=2.000000D+00  E=-1.133573D+00  Symmetry=a1

 Vector    3  Occ=2.000000D+00  E=-6.234444D-01  Symmetry=e

 Vector    4  Occ=2.000000D+00  E=-6.234444D-01  Symmetry=e

 Vector    5  Occ=2.000000D+00  E=-4.259627D-01  Symmetry=a1

 Vector    6  Occ=0.000000D+00  E= 1.140257D-01  Symmetry=a1

 Vector    7  Occ=0.000000D+00  E= 1.710198D-01  Symmetry=e

 Vector    8  Occ=0.000000D+00  E= 1.710198D-01  Symmetry=e

 Vector    9  Occ=0.000000D+00  E= 2.037287D-01  Symmetry=a1

 Vector   10  Occ=0.000000D+00  E= 3.422432D-01  Symmetry=e

 Vector   11  Occ=0.000000D+00  E= 3.422432D-01  Symmetry=e

 Vector   12  Occ=0.000000D+00  E= 3.884882D-01  Symmetry=a1

 Vector   13  Occ=0.000000D+00  E= 1.090799D+00  Symmetry=e

 Vector   14  Occ=0.000000D+00  E= 1.090799D+00  Symmetry=e

 Vector   15  Occ=0.000000D+00  E= 1.149899D+00  Symmetry=a1

     Multipole analysis of the density
     ---------------------------------

     L   x y z        total         alpha         beta         nuclear
     -   - - -        -----         -----         ----         -------
     0   0 0 0     -0.000000     -5.000000     -5.000000     10.000000

     1   1 0 0      0.000000      0.000000      0.000000      0.000000
     1   0 1 0     -0.000000     -0.000000     -0.000000      0.000000
     1   0 0 1     -0.760589     -0.476963     -0.476963      0.193336

     2   2 0 0     -4.612029     -4.781325     -4.781325      4.950621
     2   1 1 0     -0.000000     -0.000000     -0.000000      0.000000
     2   1 0 1      0.000000      0.000000      0.000000     -0.000000
     2   0 2 0     -4.612029     -4.781325     -4.781325      4.950621
     2   0 1 1     -0.000000     -0.000000     -0.000000     -0.000000

 Total times  cpu:       27.4s     wall:       28.2s
