         Total DFT energy =      -56.145166902608
@ Step       Energy      Delta E   Gmax     Grms     Xrms     Xmax   Walltime
@ ---- ---------------- -------- -------- -------- -------- -------- --------
@    0     -56.14516690  0.0D+00  0.06446  0.03755  0.00000  0.00000      0.2
         Total DFT energy =      -56.165008568338
         Total DFT energy =      -56.164934647366
@    1     -56.16493465 -2.0D-02  0.01187  0.00620  0.09141  0.16874      0.3
         Total DFT energy =      -56.165416177433
         Total DFT energy =      -56.165451708970
@    2     -56.16545171 -5.2D-04  0.00298  0.00111  0.01691  0.02916      0.5
         Total DFT energy =      -56.165497412568

 Vector   11  Occ=0.000000D+00  E= 9.732815D-01  Symmetry=a1

 Vector   12  Occ=0.000000D+00  E= 1.165222D+00  Symmetry=a1

 Vector   13  Occ=0.000000D+00  E= 1.278816D+00  Symmetry=e

 Vector   14  Occ=0.000000D+00  E= 1.278816D+00  Symmetry=e

 Vector   15  Occ=0.000000D+00  E= 1.455267D+00  Symmetry=a1

         Total DFT energy =      -56.165519608662

 Vector    1  Occ=2.000000D+00  E=-1.551829D+01  Symmetry=a1

 Vector    2  Occ=2.000000D+00  E=-1.130790D+00  Symmetry=a1

 Vector    3  Occ=2.000000D+00  E=-6.407279D-01  Symmetry=e

 Vector    4  Occ=2.000000D+00  E=-6.407279D-01  Symmetry=e

 Vector    5  Occ=2.000000D+00  E=-3.913788D-01  Symmetry=a1

 Vector    6  Occ=0.000000D+00  E= 2.286647D-01  Symmetry=a1

 Vector    7  Occ=0.000000D+00  E= 3.279553D-01  Symmetry=e

 Vector    8  Occ=0.000000D+00  E= 3.279553D-01  Symmetry=e

 Vector    9  Occ=0.000000D+00  E= 9.559030D-01  Symmetry=e

 Vector   10  Occ=0.000000D+00  E= 9.559030D-01  Symmetry=e

 Vector   11  Occ=0.000000D+00  E= 9.731532D-01  Symmetry=a1

 Vector   12  Occ=0.000000D+00  E= 1.158926D+00  Symmetry=a1

 Vector   13  Occ=0.000000D+00  E= 1.281444D+00  Symmetry=e

 Vector   14  Occ=0.000000D+00  E= 1.281444D+00  Symmetry=e

 Vector   15  Occ=0.000000D+00  E= 1.454083D+00  Symmetry=a1

@    3     -56.16551961 -6.8D-05  0.00049  0.00029  0.01295  0.03741      0.7
         Total DFT energy =      -56.165521265478

 Vector    1  Occ=2.000000D+00  E=-1.551791D+01  Symmetry=a1

 Vector    2  Occ=2.000000D+00  E=-1.130747D+00  Symmetry=a1

 Vector    3  Occ=2.000000D+00  E=-6.410950D-01  Symmetry=e

 Vector    4  Occ=2.000000D+00  E=-6.410950D-01  Symmetry=e

 Vector    5  Occ=2.000000D+00  E=-3.911213D-01  Symmetry=a1

 Vector    6  Occ=0.000000D+00  E= 2.289351D-01  Symmetry=a1

 Vector    7  Occ=0.000000D+00  E= 3.281365D-01  Symmetry=e

 Vector    8  Occ=0.000000D+00  E= 3.281365D-01  Symmetry=e

 Vector    9  Occ=0.000000D+00  E= 9.561543D-01  Symmetry=e

 Vector   10  Occ=0.000000D+00  E= 9.561543D-01  Symmetry=e

 Vector   11  Occ=0.000000D+00  E= 9.731287D-01  Symmetry=a1

 Vector   12  Occ=0.000000D+00  E= 1.158104D+00  Symmetry=a1

 Vector   13  Occ=0.000000D+00  E= 1.282464D+00  Symmetry=e

 Vector   14  Occ=0.000000D+00  E= 1.282464D+00  Symmetry=e

 Vector   15  Occ=0.000000D+00  E= 1.453954D+00  Symmetry=a1

         Total DFT energy =    -56.165521265478
@    4     -56.16552127 -1.7D-06  0.00008  0.00003  0.00148  0.00444      0.8
         Total DFT energy =      -56.165521326795

 Vector    1  Occ=2.000000D+00  E=-1.551784D+01  Symmetry=a1

 Vector    2  Occ=2.000000D+00  E=-1.130677D+00  Symmetry=a1

 Vector    3  Occ=2.000000D+00  E=-6.411557D-01  Symmetry=e

 Vector    4  Occ=2.000000D+00  E=-6.411557D-01  Symmetry=e

 Vector    5  Occ=2.000000D+00  E=-3.910391D-01  Symmetry=a1

 Vector    6  Occ=0.000000D+00  E= 2.289862D-01  Symmetry=a1

 Vector    7  Occ=0.000000D+00  E= 3.281662D-01  Symmetry=e

 Vector    8  Occ=0.000000D+00  E= 3.281662D-01  Symmetry=e

 Vector    9  Occ=0.000000D+00  E= 9.562809D-01  Symmetry=e

 Vector   10  Occ=0.000000D+00  E= 9.562809D-01  Symmetry=e

 Vector   11  Occ=0.000000D+00  E= 9.731197D-01  Symmetry=a1

 Vector   12  Occ=0.000000D+00  E= 1.157702D+00  Symmetry=a1

 Vector   13  Occ=0.000000D+00  E= 1.282641D+00  Symmetry=e

 Vector   14  Occ=0.000000D+00  E= 1.282641D+00  Symmetry=e

 Vector   15  Occ=0.000000D+00  E= 1.453887D+00  Symmetry=a1

         Total DFT energy =    -56.165521326795
@    5     -56.16552133 -6.1D-08  0.00000  0.00000  0.00046  0.00135      0.9
@    5     -56.16552133 -6.1D-08  0.00000  0.00000  0.00046  0.00135      0.9

 Output coordinates in angstroms (scale by  1.889725989 to convert to a.u.)

  No.       Tag          Charge          X              Y              Z
 ---- ---------------- ---------- -------------- -------------- --------------
    1 N                    7.0000     0.00000000     0.00000000    -0.01526070
    2 H                    1.0000     0.68691391     0.68691391    -0.21288789
    3 H                    1.0000     0.25142794    -0.93834185    -0.21288789
    4 H                    1.0000    -0.93834185     0.25142794    -0.21288789

         Total DFT energy =      -56.165521329376

 Vector    1  Occ=2.000000D+00  E=-1.551783D+01

 Vector    2  Occ=2.000000D+00  E=-1.130674D+00

 Vector    3  Occ=2.000000D+00  E=-6.411546D-01

 Vector    4  Occ=2.000000D+00  E=-6.411546D-01

 Vector    5  Occ=2.000000D+00  E=-3.910381D-01

 Vector    6  Occ=0.000000D+00  E= 2.289865D-01

 Vector    7  Occ=0.000000D+00  E= 3.281664D-01

 Vector    8  Occ=0.000000D+00  E= 3.281664D-01

 Vector    9  Occ=0.000000D+00  E= 9.562816D-01

 Vector   10  Occ=0.000000D+00  E= 9.562816D-01

 Vector   11  Occ=0.000000D+00  E= 9.731212D-01

 Vector   12  Occ=0.000000D+00  E= 1.157702D+00

 Vector   13  Occ=0.000000D+00  E= 1.282642D+00

 Vector   14  Occ=0.000000D+00  E= 1.282642D+00

 Vector   15  Occ=0.000000D+00  E= 1.453889D+00

 Zero-Point correction to Energy  =   22.826 kcal/mol  (  0.036375 au)
 Thermal correction to Energy     =   24.705 kcal/mol  (  0.039370 au)
 Thermal correction to Enthalpy   =   25.298 kcal/mol  (  0.040314 au)
 Total Entropy                    =   46.173 cal/mol-K
   - Translational                =   34.425 cal/mol-K (mol. weight =  17.0265)
   - Rotational                   =   11.288 cal/mol-K (symmetry #  =        3)
   - Vibrational                  =    0.460 cal/mol-K
   - Translational                  =    2.979 cal/mol-K
   - Rotational                     =    2.979 cal/mol-K
   - Vibrational                    =    1.084 cal/mol-K
 P.Frequency       -0.00       -0.00       -0.00       -0.00        0.00        0.00
 P.Frequency      597.66     1814.61     1814.61     3779.79     3983.95     3983.95

 Normal Eigenvalue ||           Projected Infra Red Intensities
  Mode   [cm**-1]  || [atomic units] [(debye/angs)**2] [(KM/mol)] [arbitrary]
 ------ ---------- || -------------- ----------------- ---------- -----------
    1       -0.000 ||    0.000007           0.000         0.007       0.001
    2       -0.000 ||    0.000014           0.000         0.013       0.002
    3       -0.000 ||    0.054221           1.251        52.857       7.228
    4       -0.000 ||    0.000004           0.000         0.004       0.001
    5        0.000 ||    0.000122           0.003         0.119       0.016
    6        0.000 ||    0.054351           1.254        52.984       7.246
    7      597.655 ||    0.661507          15.261       644.870      88.187
    8     1814.615 ||    0.048117           1.110        46.907       6.415
    9     1814.615 ||    0.048117           1.110        46.907       6.415
   10     3779.792 ||    0.000572           0.013         0.557       0.076
   11     3983.951 ||    0.016557           0.382        16.141       2.207
   12     3983.951 ||    0.016557           0.382        16.141       2.207
 ----------------------------------------------------------------------------

         Total DFT energy =      -56.201051055686

                       DFT Final Molecular Orbital Analysis
                       ------------------------------------

 Vector    1  Occ=2.000000D+00  E=-1.553117D+01  Symmetry=a1

 Vector    2  Occ=2.000000D+00  E=-1.138913D+00  Symmetry=a1

 Vector    3  Occ=2.000000D+00  E=-6.542507D-01  Symmetry=e

 Vector    4  Occ=2.000000D+00  E=-6.542507D-01  Symmetry=e

 Vector    5  Occ=2.000000D+00  E=-3.995061D-01  Symmetry=a1

 Vector    6  Occ=0.000000D+00  E= 1.129202D-01  Symmetry=a1

 Vector    7  Occ=0.000000D+00  E= 1.535296D-01  Symmetry=e

 Vector    8  Occ=0.000000D+00  E= 1.535296D-01  Symmetry=e

 Vector    9  Occ=0.000000D+00  E= 1.979048D-01  Symmetry=a1

 Vector   10  Occ=0.000000D+00  E= 2.853183D-01  Symmetry=e

 Vector   11  Occ=0.000000D+00  E= 2.853183D-01  Symmetry=e

 Vector   12  Occ=0.000000D+00  E= 2.929374D-01  Symmetry=a1

 Vector   13  Occ=0.000000D+00  E= 6.717052D-01  Symmetry=e

 Vector   14  Occ=0.000000D+00  E= 6.717052D-01  Symmetry=e

 Vector   15  Occ=0.000000D+00  E= 7.514793D-01  Symmetry=a1

     Multipole analysis of the density
     ---------------------------------

     L   x y z        total         alpha         beta         nuclear
     -   - - -        -----         -----         ----         -------
     0   0 0 0     -0.000000     -5.000000     -5.000000     10.000000

     1   1 0 0     -0.000000     -0.000000     -0.000000      0.000000
     1   0 1 0      0.000000      0.000000      0.000000      0.000000
     1   0 0 1     -0.441700      0.483535      0.483535     -1.408769

     2   2 0 0     -4.295253     -4.675140     -4.675140      5.055028
     2   1 1 0      0.000000      0.000000      0.000000      0.000000
     2   1 0 1      0.000000      0.000000      0.000000      0.000000
     2   0 2 0     -4.295253     -4.675140     -4.675140      5.055028
     2   0 1 1     -0.000000     -0.000000     -0.000000     -0.000000

 Total times  cpu:        1.1s     wall:        1.5s
