         Total DFT energy =      -56.132663818997
@ Step       Energy      Delta E   Gmax     Grms     Xrms     Xmax   Walltime
@ ---- ---------------- -------- -------- -------- -------- -------- --------
@    0     -56.13266382  0.0D+00  0.03041  0.01760  0.00000  0.00000      0.5
         Total DFT energy =      -56.137517292204
         Total DFT energy =      -56.137684666363
@    1     -56.13768467 -5.0D-03  0.00368  0.00204  0.05249  0.10070      1.1
         Total DFT energy =      -56.137864315428
         Total DFT energy =      -56.137880612779
@    2     -56.13788061 -2.0D-04  0.00297  0.00138  0.01738  0.03637      1.8
         Total DFT energy =      -56.137924248332

 Vector   11  Occ=0.000000D+00  E= 7.250211D-01  Symmetry=e

 Vector   12  Occ=0.000000D+00  E= 8.466904D-01  Symmetry=a1

 Vector   13  Occ=0.000000D+00  E= 8.872176D-01  Symmetry=e

 Vector   14  Occ=0.000000D+00  E= 8.872176D-01  Symmetry=e

 Vector   15  Occ=0.000000D+00  E= 1.209794D+00  Symmetry=a1

         Total DFT energy =      -56.137930145493

 Vector    1  Occ=2.000000D+00  E=-1.394512D+01  Symmetry=a1

 Vector    2  Occ=2.000000D+00  E=-7.163888D-01  Symmetry=a1

 Vector    3  Occ=2.000000D+00  E=-3.689789D-01  Symmetry=e

 Vector    4  Occ=2.000000D+00  E=-3.689789D-01  Symmetry=e

 Vector    5  Occ=2.000000D+00  E=-1.365329D-01  Symmetry=a1

 Vector    6  Occ=0.000000D+00  E= 7.011964D-02  Symmetry=a1

 Vector    7  Occ=0.000000D+00  E= 1.602178D-01  Symmetry=e

 Vector    8  Occ=0.000000D+00  E= 1.602178D-01  Symmetry=e

 Vector    9  Occ=0.000000D+00  E= 7.080893D-01  Symmetry=a1

 Vector   10  Occ=0.000000D+00  E= 7.256741D-01  Symmetry=e

 Vector   11  Occ=0.000000D+00  E= 7.256741D-01  Symmetry=e

 Vector   12  Occ=0.000000D+00  E= 8.460886D-01  Symmetry=a1

 Vector   13  Occ=0.000000D+00  E= 8.889438D-01  Symmetry=e

 Vector   14  Occ=0.000000D+00  E= 8.889438D-01  Symmetry=e

 Vector   15  Occ=0.000000D+00  E= 1.207959D+00  Symmetry=a1

@    3     -56.13793015 -5.0D-05  0.00013  0.00007  0.00898  0.02686      2.4
         Total DFT energy =      -56.137930549636

 Vector    1  Occ=2.000000D+00  E=-1.394496D+01  Symmetry=a1

 Vector    2  Occ=2.000000D+00  E=-7.160956D-01  Symmetry=a1

 Vector    3  Occ=2.000000D+00  E=-3.690297D-01  Symmetry=e

 Vector    4  Occ=2.000000D+00  E=-3.690297D-01  Symmetry=e

 Vector    5  Occ=2.000000D+00  E=-1.363314D-01  Symmetry=a1

 Vector    6  Occ=0.000000D+00  E= 7.020191D-02  Symmetry=a1

 Vector    7  Occ=0.000000D+00  E= 1.602968D-01  Symmetry=e

 Vector    8  Occ=0.000000D+00  E= 1.602968D-01  Symmetry=e

 Vector    9  Occ=0.000000D+00  E= 7.080533D-01  Symmetry=a1

 Vector   10  Occ=0.000000D+00  E= 7.260528D-01  Symmetry=e

 Vector   11  Occ=0.000000D+00  E= 7.260528D-01  Symmetry=e

 Vector   12  Occ=0.000000D+00  E= 8.453293D-01  Symmetry=a1

 Vector   13  Occ=0.000000D+00  E= 8.891104D-01  Symmetry=e

 Vector   14  Occ=0.000000D+00  E= 8.891104D-01  Symmetry=e

 Vector   15  Occ=0.000000D+00  E= 1.207298D+00  Symmetry=a1

         Total DFT energy =    -56.137930549636
@    4     -56.13793055 -4.0D-07  0.00002  0.00001  0.00104  0.00270      2.8
         Total DFT energy =      -56.137930552813

 Vector    1  Occ=2.000000D+00  E=-1.394494D+01  Symmetry=a1

 Vector    2  Occ=2.000000D+00  E=-7.160687D-01  Symmetry=a1

 Vector    3  Occ=2.000000D+00  E=-3.690429D-01  Symmetry=e

 Vector    4  Occ=2.000000D+00  E=-3.690429D-01  Symmetry=e

 Vector    5  Occ=2.000000D+00  E=-1.363074D-01  Symmetry=a1

 Vector    6  Occ=0.000000D+00  E= 7.022139D-02  Symmetry=a1

 Vector    7  Occ=0.000000D+00  E= 1.603156D-01  Symmetry=e

 Vector    8  Occ=0.000000D+00  E= 1.603156D-01  Symmetry=e

 Vector    9  Occ=0.000000D+00  E= 7.080492D-01  Symmetry=a1

 Vector   10  Occ=0.000000D+00  E= 7.260906D-01  Symmetry=e

 Vector   11  Occ=0.000000D+00  E= 7.260906D-01  Symmetry=e

 Vector   12  Occ=0.000000D+00  E= 8.452677D-01  Symmetry=a1

 Vector   13  Occ=0.000000D+00  E= 8.891554D-01  Symmetry=e

 Vector   14  Occ=0.000000D+00  E= 8.891554D-01  Symmetry=e

 Vector   15  Occ=0.000000D+00  E= 1.207221D+00  Symmetry=a1

         Total DFT energy =    -56.137930552813
@    5     -56.13793055 -3.2D-09  0.00000  0.00000  0.00012  0.00035      3.1
@    5     -56.13793055 -3.2D-09  0.00000  0.00000  0.00012  0.00035      3.1

 Output coordinates in angstroms (scale by  1.889725989 to convert to a.u.)

  No.       Tag          Charge          X              Y              Z
 ---- ---------------- ---------- -------------- -------------- --------------
    1 N                    7.0000    -0.00000000    -0.00000000     0.06413197
    2 H                    1.0000     0.69812779     0.69812779    -0.23935211
    3 H                    1.0000     0.25553250    -0.95366029    -0.23935211
    4 H                    1.0000    -0.95366029     0.25553250    -0.23935211

         Total DFT energy =      -56.137930564888

 Vector    1  Occ=2.000000D+00  E=-1.394494D+01

 Vector    2  Occ=2.000000D+00  E=-7.160695D-01

 Vector    3  Occ=2.000000D+00  E=-3.690431D-01

 Vector    4  Occ=2.000000D+00  E=-3.690431D-01

 Vector    5  Occ=2.000000D+00  E=-1.363067D-01

 Vector    6  Occ=0.000000D+00  E= 7.022098D-02

 Vector    7  Occ=0.000000D+00  E= 1.603156D-01

 Vector    8  Occ=0.000000D+00  E= 1.603156D-01

 Vector    9  Occ=0.000000D+00  E= 7.080495D-01

 Vector   10  Occ=0.000000D+00  E= 7.260902D-01

 Vector   11  Occ=0.000000D+00  E= 7.260902D-01

 Vector   12  Occ=0.000000D+00  E= 8.452671D-01

 Vector   13  Occ=0.000000D+00  E= 8.891553D-01

 Vector   14  Occ=0.000000D+00  E= 8.891553D-01

 Vector   15  Occ=0.000000D+00  E= 1.207220D+00

 Zero-Point correction to Energy  =   20.197 kcal/mol  (  0.032186 au)
 Thermal correction to Energy     =   22.062 kcal/mol  (  0.035159 au)
 Thermal correction to Enthalpy   =   22.655 kcal/mol  (  0.036102 au)
 Total Entropy                    =   46.356 cal/mol-K
   - Translational                =   34.425 cal/mol-K (mol. weight =  17.0265)
   - Rotational                   =   11.540 cal/mol-K (symmetry #  =        3)
   - Vibrational                  =    0.390 cal/mol-K
   - Translational                  =    2.979 cal/mol-K
   - Rotational                     =    2.979 cal/mol-K
   - Vibrational                    =    1.025 cal/mol-K
 P.Frequency       -0.00        0.00        0.00        0.00        0.00        0.00
 P.Frequency      645.51     1648.81     1648.81     3280.10     3455.70     3455.70

 Normal Eigenvalue ||           Projected Infra Red Intensities
  Mode   [cm**-1]  || [atomic units] [(debye/angs)**2] [(KM/mol)] [arbitrary]
 ------ ---------- || -------------- ----------------- ---------- -----------
    1       -0.000 ||    0.000043           0.001         0.042       0.010
    2        0.000 ||    0.000280           0.006         0.273       0.065
    3        0.000 ||    0.000037           0.001         0.036       0.009
    4        0.000 ||    0.081191           1.873        79.149      18.915
    5        0.000 ||    0.081438           1.879        79.390      18.973
    6        0.000 ||    0.000012           0.000         0.011       0.003
    7      645.506 ||    0.306067           7.061       298.369      71.306
    8     1648.810 ||    0.018766           0.433        18.294       4.372
    9     1648.811 ||    0.018766           0.433        18.294       4.372
   10     3280.097 ||    0.003958           0.091         3.858       0.922
   11     3455.697 ||    0.002261           0.052         2.204       0.527
   12     3455.698 ||    0.002260           0.052         2.204       0.527
 ----------------------------------------------------------------------------

         Total DFT energy =      -56.160311612647

                       DFT Final Molecular Orbital Analysis
                       ------------------------------------

 Vector    1  Occ=2.000000D+00  E=-1.392408D+01  Symmetry=a1

 Vector    2  Occ=2.000000D+00  E=-7.233864D-01  Symmetry=a1

 Vector    3  Occ=2.000000D+00  E=-3.768773D-01  Symmetry=e

 Vector    4  Occ=2.000000D+00  E=-3.768773D-01  Symmetry=e

 Vector    5  Occ=2.000000D+00  E=-1.494272D-01  Symmetry=a1

 Vector    6  Occ=0.000000D+00  E= 2.942449D-02  Symmetry=a1

 Vector    7  Occ=0.000000D+00  E= 1.082404D-01  Symmetry=e

 Vector    8  Occ=0.000000D+00  E= 1.082404D-01  Symmetry=e

 Vector    9  Occ=0.000000D+00  E= 3.412622D-01  Symmetry=e

 Vector   10  Occ=0.000000D+00  E= 3.412622D-01  Symmetry=e

 Vector   11  Occ=0.000000D+00  E= 4.111656D-01  Symmetry=a1

 Vector   12  Occ=0.000000D+00  E= 5.970172D-01  Symmetry=a1

 Vector   13  Occ=0.000000D+00  E= 7.065307D-01  Symmetry=e

 Vector   14  Occ=0.000000D+00  E= 7.065307D-01  Symmetry=e

 Vector   15  Occ=0.000000D+00  E= 9.599601D-01  Symmetry=a1

     Multipole analysis of the density
     ---------------------------------

     L   x y z        total         alpha         beta         nuclear
     -   - - -        -----         -----         ----         -------
     0   0 0 0     -0.000000     -5.000000     -5.000000     10.000000

     1   1 0 0     -0.000000     -0.000000     -0.000000     -0.000000
     1   0 1 0     -0.000000     -0.000000     -0.000000     -0.000000
     1   0 0 1     -0.648053     -0.069733     -0.069733     -0.508587

     2   2 0 0     -4.603794     -4.912608     -4.912608      5.221422
     2   1 1 0      0.000000      0.000000      0.000000     -0.000000
     2   1 0 1      0.000000      0.000000      0.000000      0.000000
     2   0 2 0     -4.603794     -4.912608     -4.912608      5.221422
     2   0 1 1      0.000000      0.000000      0.000000      0.000000

 Total times  cpu:       10.7s     wall:       11.4s
