         Total DFT energy =     -108.990972772763
@ Step       Energy      Delta E   Gmax     Grms     Xrms     Xmax   Walltime
@ ---- ---------------- -------- -------- -------- -------- -------- --------
@    0    -108.99097277  0.0D+00  0.04931  0.04931  0.00000  0.00000      0.7
         Total DFT energy =     -108.990657476541

 Vector   15  Occ=0.000000D+00  E= 1.614998D-01  Symmetry=eg

 Vector   16  Occ=0.000000D+00  E= 1.614998D-01  Symmetry=eg

 Vector   17  Occ=0.000000D+00  E= 2.513814D-01  Symmetry=a2u

 Vector   18  Occ=0.000000D+00  E= 4.602256D-01  Symmetry=a2u

 Vector   19  Occ=0.000000D+00  E= 6.671843D-01  Symmetry=a1g

         Total DFT energy =     -108.991797243650

 Vector    1  Occ=2.000000D+00  E=-1.407063D+01  Symmetry=a1g

 Vector    2  Occ=2.000000D+00  E=-1.406957D+01  Symmetry=a2u

 Vector    3  Occ=2.000000D+00  E=-9.938716D-01  Symmetry=a1g

 Vector    4  Occ=2.000000D+00  E=-4.658509D-01  Symmetry=a2u

 Vector    5  Occ=2.000000D+00  E=-3.863863D-01  Symmetry=eu

 Vector    6  Occ=2.000000D+00  E=-3.863863D-01  Symmetry=eu

 Vector    7  Occ=2.000000D+00  E=-3.454163D-01  Symmetry=a1g

 Vector    8  Occ=0.000000D+00  E=-5.032630D-02  Symmetry=eg

 Vector    9  Occ=0.000000D+00  E=-5.032630D-02  Symmetry=eg

 Vector   10  Occ=0.000000D+00  E= 5.701237D-02  Symmetry=a1g

 Vector   11  Occ=0.000000D+00  E= 7.475319D-02  Symmetry=a2u

 Vector   12  Occ=0.000000D+00  E= 8.473537D-02  Symmetry=eu

 Vector   13  Occ=0.000000D+00  E= 8.473537D-02  Symmetry=eu

 Vector   14  Occ=0.000000D+00  E= 1.362436D-01  Symmetry=a1g

 Vector   15  Occ=0.000000D+00  E= 1.630297D-01  Symmetry=eg

 Vector   16  Occ=0.000000D+00  E= 1.630297D-01  Symmetry=eg

 Vector   17  Occ=0.000000D+00  E= 2.520291D-01  Symmetry=a2u

 Vector   18  Occ=0.000000D+00  E= 4.803208D-01  Symmetry=a2u

 Vector   19  Occ=0.000000D+00  E= 6.628745D-01  Symmetry=a1g

@    1    -108.99179724 -8.2D-04  0.00142  0.00142  0.01018  0.01763      1.6
         Total DFT energy =     -108.991797977379

 Vector    1  Occ=2.000000D+00  E=-1.407051D+01  Symmetry=a1g

 Vector    2  Occ=2.000000D+00  E=-1.406944D+01  Symmetry=a2u

 Vector    3  Occ=2.000000D+00  E=-9.941597D-01  Symmetry=a1g

 Vector    4  Occ=2.000000D+00  E=-4.657201D-01  Symmetry=a2u

 Vector    5  Occ=2.000000D+00  E=-3.865323D-01  Symmetry=eu

 Vector    6  Occ=2.000000D+00  E=-3.865323D-01  Symmetry=eu

 Vector    7  Occ=2.000000D+00  E=-3.454362D-01  Symmetry=a1g

 Vector    8  Occ=0.000000D+00  E=-5.011061D-02  Symmetry=eg

 Vector    9  Occ=0.000000D+00  E=-5.011061D-02  Symmetry=eg

 Vector   10  Occ=0.000000D+00  E= 5.702370D-02  Symmetry=a1g

 Vector   11  Occ=0.000000D+00  E= 7.476766D-02  Symmetry=a2u

 Vector   12  Occ=0.000000D+00  E= 8.472373D-02  Symmetry=eu

 Vector   13  Occ=0.000000D+00  E= 8.472373D-02  Symmetry=eu

 Vector   14  Occ=0.000000D+00  E= 1.362496D-01  Symmetry=a1g

 Vector   15  Occ=0.000000D+00  E= 1.630670D-01  Symmetry=eg

 Vector   16  Occ=0.000000D+00  E= 1.630670D-01  Symmetry=eg

 Vector   17  Occ=0.000000D+00  E= 2.520437D-01  Symmetry=a2u

 Vector   18  Occ=0.000000D+00  E= 4.807789D-01  Symmetry=a2u

 Vector   19  Occ=0.000000D+00  E= 6.627713D-01  Symmetry=a1g

         Total DFT energy =   -108.991797977379
@    2    -108.99179798 -7.3D-07  0.00009  0.00009  0.00029  0.00049      2.1
@    2    -108.99179798 -7.3D-07  0.00009  0.00009  0.00029  0.00049      2.1

 Output coordinates in angstroms (scale by  1.889725989 to convert to a.u.)

  No.       Tag          Charge          X              Y              Z
 ---- ---------------- ---------- -------------- -------------- --------------
    1 N                    7.0000     0.00000000     0.00000000    -0.55906818
    2 N                    7.0000     0.00000000     0.00000000     0.55906818

         Total DFT energy =     -108.991797803369

 Vector    1  Occ=2.000000D+00  E=-1.407050D+01

 Vector    2  Occ=2.000000D+00  E=-1.406943D+01

 Vector    3  Occ=2.000000D+00  E=-9.941591D-01

 Vector    4  Occ=2.000000D+00  E=-4.657173D-01

 Vector    5  Occ=2.000000D+00  E=-3.865305D-01

 Vector    6  Occ=2.000000D+00  E=-3.865305D-01

 Vector    7  Occ=2.000000D+00  E=-3.454336D-01

 Vector    8  Occ=0.000000D+00  E=-5.010845D-02

 Vector    9  Occ=0.000000D+00  E=-5.010845D-02

 Vector   10  Occ=0.000000D+00  E= 5.702455D-02

 Vector   11  Occ=0.000000D+00  E= 7.476842D-02

 Vector   12  Occ=0.000000D+00  E= 8.472424D-02

 Vector   13  Occ=0.000000D+00  E= 8.472424D-02

 Vector   14  Occ=0.000000D+00  E= 1.362501D-01

 Vector   15  Occ=0.000000D+00  E= 1.630678D-01

 Vector   16  Occ=0.000000D+00  E= 1.630678D-01

 Vector   17  Occ=0.000000D+00  E= 2.520444D-01

 Vector   18  Occ=0.000000D+00  E= 4.807803D-01

 Vector   19  Occ=0.000000D+00  E= 6.627722D-01

 Zero-Point correction to Energy  =    3.225 kcal/mol  (  0.005140 au)
 Thermal correction to Energy     =    4.706 kcal/mol  (  0.007499 au)
 Thermal correction to Enthalpy   =    5.298 kcal/mol  (  0.008443 au)
 Total Entropy                    =   45.811 cal/mol-K
   - Translational                =   35.908 cal/mol-K (mol. weight =  28.0061)
   - Rotational                   =    9.903 cal/mol-K (symmetry #  =        2)
   - Vibrational                  =    0.000 cal/mol-K
   - Translational                  =    2.979 cal/mol-K
   - Rotational                     =    1.986 cal/mol-K
   - Vibrational                    =    0.004 cal/mol-K
 P.Frequency        0.00        0.00        0.00        0.00        0.00     2257.12

 Normal Eigenvalue ||           Projected Infra Red Intensities
  Mode   [cm**-1]  || [atomic units] [(debye/angs)**2] [(KM/mol)] [arbitrary]
 ------ ---------- || -------------- ----------------- ---------- -----------
    1        0.000 ||    0.000000           0.000         0.000       0.353
    2        0.000 ||    0.000000           0.000         0.000       0.503
    3        0.000 ||    0.000000           0.000         0.000       0.355
    4        0.000 ||    0.000000           0.000         0.000       0.505
    5        0.000 ||    0.000000           0.000         0.000       0.000
    6     2257.118 ||    0.000000           0.000         0.000      58.285
 ----------------------------------------------------------------------------

         Total DFT energy =     -108.941799701629

                       DFT Final Molecular Orbital Analysis
                       ------------------------------------

 Vector    1  Occ=2.000000D+00  E=-1.570999D+01  Symmetry=a1g

 Vector    2  Occ=2.000000D+00  E=-1.570696D+01  Symmetry=a2u

 Vector    3  Occ=2.000000D+00  E=-1.465426D+00  Symmetry=a1g

 Vector    4  Occ=2.000000D+00  E=-7.877190D-01  Symmetry=a2u

 Vector    5  Occ=2.000000D+00  E=-6.332271D-01  Symmetry=a1g

 Vector    6  Occ=2.000000D+00  E=-6.083919D-01  Symmetry=eu

 Vector    7  Occ=2.000000D+00  E=-6.083919D-01  Symmetry=eu

 Vector    8  Occ=0.000000D+00  E= 1.214043D-01  Symmetry=eg

 Vector    9  Occ=0.000000D+00  E= 1.214043D-01  Symmetry=eg

 Vector   10  Occ=0.000000D+00  E= 1.425083D-01  Symmetry=a2u

 Vector   11  Occ=0.000000D+00  E= 1.457310D-01  Symmetry=a1g

 Vector   12  Occ=0.000000D+00  E= 1.690081D-01  Symmetry=eu

 Vector   13  Occ=0.000000D+00  E= 1.690081D-01  Symmetry=eu

 Vector   14  Occ=0.000000D+00  E= 2.202873D-01  Symmetry=a1g

 Vector   15  Occ=0.000000D+00  E= 2.706765D-01  Symmetry=eg

 Vector   16  Occ=0.000000D+00  E= 2.706765D-01  Symmetry=eg

 Vector   17  Occ=0.000000D+00  E= 3.335828D-01  Symmetry=a2u

 Vector   18  Occ=0.000000D+00  E= 6.944893D-01  Symmetry=a2u

     Multipole analysis of the density
     ---------------------------------

     L   x y z        total         alpha         beta         nuclear
     -   - - -        -----         -----         ----         -------
     0   0 0 0     -0.000000     -7.000000     -7.000000     14.000000

     1   1 0 0      0.000000      0.000000      0.000000      0.000000
     1   0 1 0     -0.000000     -0.000000     -0.000000      0.000000
     1   0 0 1      0.000000      0.000000      0.000000      0.000000

     2   2 0 0     -7.807984     -3.903992     -3.903992      0.000000
     2   1 1 0      0.000000      0.000000      0.000000      0.000000
     2   1 0 1     -0.000000     -0.000000     -0.000000      0.000000
     2   0 2 0     -7.807984     -3.903992     -3.903992      0.000000
     2   0 1 1     -0.000000     -0.000000     -0.000000      0.000000

 Total times  cpu:       15.0s     wall:       15.6s
