         Total DFT energy =     -109.560764507968
@ Step       Energy      Delta E   Gmax     Grms     Xrms     Xmax   Walltime
@ ---- ---------------- -------- -------- -------- -------- -------- --------
@    0    -109.56076451  0.0D+00  0.01338  0.01338  0.00000  0.00000      0.6
         Total DFT energy =     -109.560704298493

 Vector   12  Occ=0.000000D+00  E= 9.050180D-02  Symmetry=eu

 Vector   13  Occ=0.000000D+00  E= 9.050180D-02  Symmetry=eu

 Vector   14  Occ=0.000000D+00  E= 1.408577D-01  Symmetry=a1g

 Vector   15  Occ=0.000000D+00  E= 1.731472D-01  Symmetry=eg

 Vector   16  Occ=0.000000D+00  E= 1.731472D-01  Symmetry=eg

 Vector   17  Occ=0.000000D+00  E= 2.578764D-01  Symmetry=a2u

 Vector   18  Occ=0.000000D+00  E= 5.123526D-01  Symmetry=a2u

         Total DFT energy =     -109.560822364860

 Vector    1  Occ=2.000000D+00  E=-1.442838D+01  Symmetry=a1g

 Vector    2  Occ=2.000000D+00  E=-1.442654D+01  Symmetry=a2u

 Vector    3  Occ=2.000000D+00  E=-1.140763D+00  Symmetry=a1g

 Vector    4  Occ=2.000000D+00  E=-5.606315D-01  Symmetry=a2u

 Vector    5  Occ=2.000000D+00  E=-4.768986D-01  Symmetry=eu

 Vector    6  Occ=2.000000D+00  E=-4.768986D-01  Symmetry=eu

 Vector    7  Occ=2.000000D+00  E=-4.410009D-01  Symmetry=a1g

 Vector    8  Occ=0.000000D+00  E=-3.783558D-02  Symmetry=eg

 Vector    9  Occ=0.000000D+00  E=-3.783558D-02  Symmetry=eg

 Vector   10  Occ=0.000000D+00  E= 6.229828D-02  Symmetry=a1g

 Vector   11  Occ=0.000000D+00  E= 8.026824D-02  Symmetry=a2u

 Vector   12  Occ=0.000000D+00  E= 9.064598D-02  Symmetry=eu

 Vector   13  Occ=0.000000D+00  E= 9.064598D-02  Symmetry=eu

 Vector   14  Occ=0.000000D+00  E= 1.407528D-01  Symmetry=a1g

 Vector   15  Occ=0.000000D+00  E= 1.725873D-01  Symmetry=eg

 Vector   16  Occ=0.000000D+00  E= 1.725873D-01  Symmetry=eg

 Vector   17  Occ=0.000000D+00  E= 2.576907D-01  Symmetry=a2u

 Vector   18  Occ=0.000000D+00  E= 5.075219D-01  Symmetry=a2u

@    1    -109.56082236 -5.8D-05  0.00014  0.00014  0.00246  0.00426      1.6
         Total DFT energy =     -109.560822370653

 Vector    1  Occ=2.000000D+00  E=-1.442836D+01  Symmetry=a1g

 Vector    2  Occ=2.000000D+00  E=-1.442652D+01  Symmetry=a2u

 Vector    3  Occ=2.000000D+00  E=-1.140787D+00  Symmetry=a1g

 Vector    4  Occ=2.000000D+00  E=-5.606142D-01  Symmetry=a2u

 Vector    5  Occ=2.000000D+00  E=-4.769096D-01  Symmetry=eu

 Vector    6  Occ=2.000000D+00  E=-4.769096D-01  Symmetry=eu

 Vector    7  Occ=2.000000D+00  E=-4.409982D-01  Symmetry=a1g

 Vector    8  Occ=0.000000D+00  E=-3.781102D-02  Symmetry=eg

 Vector    9  Occ=0.000000D+00  E=-3.781102D-02  Symmetry=eg

 Vector   10  Occ=0.000000D+00  E= 6.230033D-02  Symmetry=a1g

 Vector   11  Occ=0.000000D+00  E= 8.027017D-02  Symmetry=a2u

 Vector   12  Occ=0.000000D+00  E= 9.064550D-02  Symmetry=eu

 Vector   13  Occ=0.000000D+00  E= 9.064550D-02  Symmetry=eu

 Vector   14  Occ=0.000000D+00  E= 1.407540D-01  Symmetry=a1g

 Vector   15  Occ=0.000000D+00  E= 1.725922D-01  Symmetry=eg

 Vector   16  Occ=0.000000D+00  E= 1.725922D-01  Symmetry=eg

 Vector   17  Occ=0.000000D+00  E= 2.576926D-01  Symmetry=a2u

 Vector   18  Occ=0.000000D+00  E= 5.075594D-01  Symmetry=a2u

         Total DFT energy =   -109.560822370653
@    2    -109.56082237 -5.8D-09  0.00000  0.00000  0.00003  0.00004      2.1
@    2    -109.56082237 -5.8D-09  0.00000  0.00000  0.00003  0.00004      2.1

 Output coordinates in angstroms (scale by  1.889725989 to convert to a.u.)

  No.       Tag          Charge          X              Y              Z
 ---- ---------------- ---------- -------------- -------------- --------------
    1 N                    7.0000     0.00000000     0.00000000    -0.54772206
    2 N                    7.0000     0.00000000     0.00000000     0.54772206

         Total DFT energy =     -109.560822434059

 Vector    1  Occ=2.000000D+00  E=-1.442837D+01

 Vector    2  Occ=2.000000D+00  E=-1.442653D+01

 Vector    3  Occ=2.000000D+00  E=-1.140793D+00

 Vector    4  Occ=2.000000D+00  E=-5.606177D-01

 Vector    5  Occ=2.000000D+00  E=-4.769139D-01

 Vector    6  Occ=2.000000D+00  E=-4.769139D-01

 Vector    7  Occ=2.000000D+00  E=-4.410022D-01

 Vector    8  Occ=0.000000D+00  E=-3.781456D-02

 Vector    9  Occ=0.000000D+00  E=-3.781455D-02

 Vector   10  Occ=0.000000D+00  E= 6.229942D-02

 Vector   11  Occ=0.000000D+00  E= 8.026955D-02

 Vector   12  Occ=0.000000D+00  E= 9.064456D-02

 Vector   13  Occ=0.000000D+00  E= 9.064456D-02

 Vector   14  Occ=0.000000D+00  E= 1.407532D-01

 Vector   15  Occ=0.000000D+00  E= 1.725910D-01

 Vector   16  Occ=0.000000D+00  E= 1.725910D-01

 Vector   17  Occ=0.000000D+00  E= 2.576911D-01

 Vector   18  Occ=0.000000D+00  E= 5.075571D-01

 Zero-Point correction to Energy  =    3.489 kcal/mol  (  0.005560 au)
 Thermal correction to Energy     =    4.969 kcal/mol  (  0.007919 au)
 Thermal correction to Enthalpy   =    5.562 kcal/mol  (  0.008863 au)
 Total Entropy                    =   45.729 cal/mol-K
   - Translational                =   35.908 cal/mol-K (mol. weight =  28.0061)
   - Rotational                   =    9.821 cal/mol-K (symmetry #  =        2)
   - Vibrational                  =    0.000 cal/mol-K
   - Translational                  =    2.979 cal/mol-K
   - Rotational                     =    1.986 cal/mol-K
   - Vibrational                    =    0.002 cal/mol-K
 P.Frequency       -0.00       -0.00        0.00        0.00        0.00     2441.66

 Normal Eigenvalue ||           Projected Infra Red Intensities
  Mode   [cm**-1]  || [atomic units] [(debye/angs)**2] [(KM/mol)] [arbitrary]
 ------ ---------- || -------------- ----------------- ---------- -----------
    1       -0.000 ||    0.000000           0.000         0.000       0.046
    2       -0.000 ||    0.000000           0.000         0.000       4.728
    3        0.000 ||    0.000000           0.000         0.000      27.955
    4        0.000 ||    0.000000           0.000         0.000       2.476
    5        0.000 ||    0.000000           0.000         0.000      23.845
    6     2441.664 ||    0.000000           0.000         0.000       0.951
 ----------------------------------------------------------------------------

         Total DFT energy =     -109.410121397316

                       DFT Final Molecular Orbital Analysis
                       ------------------------------------

 Vector    1  Occ=2.000000D+00  E=-1.411450D+01  Symmetry=a1g

 Vector    2  Occ=2.000000D+00  E=-1.411315D+01  Symmetry=a2u

 Vector    3  Occ=2.000000D+00  E=-1.046833D+00  Symmetry=a1g

 Vector    4  Occ=2.000000D+00  E=-4.966708D-01  Symmetry=a2u

 Vector    5  Occ=2.000000D+00  E=-4.294458D-01  Symmetry=eu

 Vector    6  Occ=2.000000D+00  E=-4.294458D-01  Symmetry=eu

 Vector    7  Occ=2.000000D+00  E=-3.770315D-01  Symmetry=a1g

 Vector    8  Occ=0.000000D+00  E=-7.154336D-02  Symmetry=eg

 Vector    9  Occ=0.000000D+00  E=-7.154336D-02  Symmetry=eg

 Vector   10  Occ=0.000000D+00  E= 5.458780D-02  Symmetry=a1g

 Vector   11  Occ=0.000000D+00  E= 7.336692D-02  Symmetry=a2u

 Vector   12  Occ=0.000000D+00  E= 8.375276D-02  Symmetry=eu

 Vector   13  Occ=0.000000D+00  E= 8.375276D-02  Symmetry=eu

 Vector   14  Occ=0.000000D+00  E= 1.331858D-01  Symmetry=a1g

 Vector   15  Occ=0.000000D+00  E= 1.637306D-01  Symmetry=eg

 Vector   16  Occ=0.000000D+00  E= 1.637306D-01  Symmetry=eg

 Vector   17  Occ=0.000000D+00  E= 2.525678D-01  Symmetry=a2u

 Vector   18  Occ=0.000000D+00  E= 4.866965D-01  Symmetry=a2u

 Vector   19  Occ=0.000000D+00  E= 7.147132D-01  Symmetry=a1g

     Multipole analysis of the density
     ---------------------------------

     L   x y z        total         alpha         beta         nuclear
     -   - - -        -----         -----         ----         -------
     0   0 0 0     -0.000000     -7.000000     -7.000000     14.000000

     1   1 0 0     -0.000000     -0.000000     -0.000000      0.000000
     1   0 1 0     -0.000000     -0.000000     -0.000000      0.000000
     1   0 0 1     -0.000000     -0.000000     -0.000000      0.000000

     2   2 0 0     -7.673301     -3.836651     -3.836651      0.000000
     2   1 1 0     -0.000000     -0.000000     -0.000000      0.000000
     2   1 0 1      0.000000      0.000000      0.000000      0.000000
     2   0 2 0     -7.673301     -3.836651     -3.836651      0.000000
     2   0 1 1      0.000000      0.000000      0.000000      0.000000

 Total times  cpu:       16.0s     wall:       16.7s
