         Total DFT energy =      -56.170932614623
@ Step       Energy      Delta E   Gmax     Grms     Xrms     Xmax   Walltime
@ ---- ---------------- -------- -------- -------- -------- -------- --------
@    0     -56.17093261  0.0D+00  0.06235  0.03607  0.00000  0.00000      0.2
         Total DFT energy =      -56.189414770152
         Total DFT energy =      -56.189156141024

 Vector   11  Occ=0.000000D+00  E= 3.606481D-01  Symmetry=e

 Vector   12  Occ=0.000000D+00  E= 3.996165D-01  Symmetry=a1

 Vector   13  Occ=0.000000D+00  E= 1.068561D+00  Symmetry=e

 Vector   14  Occ=0.000000D+00  E= 1.068561D+00  Symmetry=e

 Vector   15  Occ=0.000000D+00  E= 1.145498D+00  Symmetry=a1

@    1     -56.18915614 -1.8D-02  0.01183  0.00628  0.09274  0.17796      0.6
         Total DFT energy =      -56.189461641534

 Vector    1  Occ=2.000000D+00  E=-1.554907D+01  Symmetry=a1

 Vector    2  Occ=2.000000D+00  E=-1.147173D+00  Symmetry=a1

 Vector    3  Occ=2.000000D+00  E=-6.373447D-01  Symmetry=e

 Vector    4  Occ=2.000000D+00  E=-6.373447D-01  Symmetry=e

 Vector    5  Occ=2.000000D+00  E=-4.240987D-01  Symmetry=a1

 Vector    6  Occ=0.000000D+00  E= 1.148655D-01  Symmetry=a1

 Vector    7  Occ=0.000000D+00  E= 1.693810D-01  Symmetry=e

 Vector    8  Occ=0.000000D+00  E= 1.693810D-01  Symmetry=e

 Vector    9  Occ=0.000000D+00  E= 2.041250D-01  Symmetry=a1

 Vector   10  Occ=0.000000D+00  E= 3.543037D-01  Symmetry=e

 Vector   11  Occ=0.000000D+00  E= 3.543037D-01  Symmetry=e

 Vector   12  Occ=0.000000D+00  E= 3.967485D-01  Symmetry=a1

 Vector   13  Occ=0.000000D+00  E= 1.075705D+00  Symmetry=e

 Vector   14  Occ=0.000000D+00  E= 1.075705D+00  Symmetry=e

 Vector   15  Occ=0.000000D+00  E= 1.147436D+00  Symmetry=a1

         Total DFT energy =      -56.189499439915

 Vector    1  Occ=2.000000D+00  E=-1.554759D+01  Symmetry=a1

 Vector    2  Occ=2.000000D+00  E=-1.148757D+00  Symmetry=a1

 Vector    3  Occ=2.000000D+00  E=-6.393118D-01  Symmetry=e

 Vector    4  Occ=2.000000D+00  E=-6.393118D-01  Symmetry=e

 Vector    5  Occ=2.000000D+00  E=-4.235530D-01  Symmetry=a1

 Vector    6  Occ=0.000000D+00  E= 1.150959D-01  Symmetry=a1

 Vector    7  Occ=0.000000D+00  E= 1.691229D-01  Symmetry=e

 Vector    8  Occ=0.000000D+00  E= 1.691229D-01  Symmetry=e

 Vector    9  Occ=0.000000D+00  E= 2.041580D-01  Symmetry=a1

 Vector   10  Occ=0.000000D+00  E= 3.559205D-01  Symmetry=e

 Vector   11  Occ=0.000000D+00  E= 3.559205D-01  Symmetry=e

 Vector   12  Occ=0.000000D+00  E= 3.974690D-01  Symmetry=a1

 Vector   13  Occ=0.000000D+00  E= 1.073892D+00  Symmetry=e

 Vector   14  Occ=0.000000D+00  E= 1.073892D+00  Symmetry=e

 Vector   15  Occ=0.000000D+00  E= 1.146945D+00  Symmetry=a1

@    2     -56.18949944 -3.4D-04  0.00010  0.00004  0.00927  0.02064      0.9
         Total DFT energy =      -56.189499493081

 Vector    1  Occ=2.000000D+00  E=-1.554766D+01  Symmetry=a1

 Vector    2  Occ=2.000000D+00  E=-1.148821D+00  Symmetry=a1

 Vector    3  Occ=2.000000D+00  E=-6.392693D-01  Symmetry=e

 Vector    4  Occ=2.000000D+00  E=-6.392693D-01  Symmetry=e

 Vector    5  Occ=2.000000D+00  E=-4.236640D-01  Symmetry=a1

 Vector    6  Occ=0.000000D+00  E= 1.150524D-01  Symmetry=a1

 Vector    7  Occ=0.000000D+00  E= 1.691374D-01  Symmetry=e

 Vector    8  Occ=0.000000D+00  E= 1.691374D-01  Symmetry=e

 Vector    9  Occ=0.000000D+00  E= 2.041587D-01  Symmetry=a1

 Vector   10  Occ=0.000000D+00  E= 3.558790D-01  Symmetry=e

 Vector   11  Occ=0.000000D+00  E= 3.558790D-01  Symmetry=e

 Vector   12  Occ=0.000000D+00  E= 3.975649D-01  Symmetry=a1

 Vector   13  Occ=0.000000D+00  E= 1.073862D+00  Symmetry=e

 Vector   14  Occ=0.000000D+00  E= 1.073862D+00  Symmetry=e

 Vector   15  Occ=0.000000D+00  E= 1.146980D+00  Symmetry=a1

         Total DFT energy =    -56.189499493081
@    3     -56.18949949 -5.3D-08  0.00002  0.00001  0.00029  0.00072      1.1
@    3     -56.18949949 -5.3D-08  0.00002  0.00001  0.00029  0.00072      1.1

 Output coordinates in angstroms (scale by  1.889725989 to convert to a.u.)

  No.       Tag          Charge          X              Y              Z
 ---- ---------------- ---------- -------------- -------------- --------------
    1 N                    7.0000    -0.00000000    -0.00000000     0.10326541
    2 H                    1.0000     0.66241300     0.66241300    -0.25239659
    3 H                    1.0000     0.24245999    -0.90487299    -0.25239659
    4 H                    1.0000    -0.90487299     0.24245999    -0.25239659

         Total DFT energy =      -56.189499498946

 Vector    1  Occ=2.000000D+00  E=-1.554762D+01

 Vector    2  Occ=2.000000D+00  E=-1.148811D+00

 Vector    3  Occ=2.000000D+00  E=-6.392587D-01

 Vector    4  Occ=2.000000D+00  E=-6.392587D-01

 Vector    5  Occ=2.000000D+00  E=-4.236516D-01

 Vector    6  Occ=0.000000D+00  E= 1.150534D-01

 Vector    7  Occ=0.000000D+00  E= 1.691387D-01

 Vector    8  Occ=0.000000D+00  E= 1.691387D-01

 Vector    9  Occ=0.000000D+00  E= 2.041601D-01

 Vector   10  Occ=0.000000D+00  E= 3.558826D-01

 Vector   11  Occ=0.000000D+00  E= 3.558826D-01

 Vector   12  Occ=0.000000D+00  E= 3.975676D-01

 Vector   13  Occ=0.000000D+00  E= 1.073870D+00

 Vector   14  Occ=0.000000D+00  E= 1.073870D+00

 Vector   15  Occ=0.000000D+00  E= 1.146992D+00

 Zero-Point correction to Energy  =   23.196 kcal/mol  (  0.036965 au)
 Thermal correction to Energy     =   24.986 kcal/mol  (  0.039818 au)
 Thermal correction to Enthalpy   =   25.578 kcal/mol  (  0.040762 au)
 Total Entropy                    =   45.841 cal/mol-K
   - Translational                =   34.425 cal/mol-K (mol. weight =  17.0265)
   - Rotational                   =   11.363 cal/mol-K (symmetry #  =        3)
   - Vibrational                  =    0.053 cal/mol-K
   - Translational                  =    2.979 cal/mol-K
   - Rotational                     =    2.979 cal/mol-K
   - Vibrational                    =    0.270 cal/mol-K
 P.Frequency       -0.00       -0.00       -0.00        0.00        0.00        0.00
 P.Frequency     1167.49     1847.03     1847.04     3699.63     3836.24     3836.24

 Normal Eigenvalue ||           Projected Infra Red Intensities
  Mode   [cm**-1]  || [atomic units] [(debye/angs)**2] [(KM/mol)] [arbitrary]
 ------ ---------- || -------------- ----------------- ---------- -----------
    1       -0.000 ||    0.000067           0.002         0.065       0.015
    2       -0.000 ||    0.000147           0.003         0.143       0.033
    3       -0.000 ||    0.073982           1.707        72.122      16.729
    4        0.000 ||    0.017149           0.396        16.718       3.878
    5        0.000 ||    0.000269           0.006         0.263       0.061
    6        0.000 ||    0.091266           2.106        88.971      20.637
    7     1167.489 ||    0.272982           6.298       266.117      61.726
    8     1847.034 ||    0.032496           0.750        31.679       7.348
    9     1847.035 ||    0.032496           0.750        31.679       7.348
   10     3699.634 ||    0.000003           0.000         0.003       0.001
   11     3836.242 ||    0.004918           0.113         4.794       1.112
   12     3836.242 ||    0.004918           0.113         4.794       1.112
 ----------------------------------------------------------------------------

         Total DFT energy =      -56.204952741225

                       DFT Final Molecular Orbital Analysis
                       ------------------------------------

 Vector    1  Occ=2.000000D+00  E=-1.554062D+01  Symmetry=a1

 Vector    2  Occ=2.000000D+00  E=-1.148281D+00  Symmetry=a1

 Vector    3  Occ=2.000000D+00  E=-6.387128D-01  Symmetry=e

 Vector    4  Occ=2.000000D+00  E=-6.387128D-01  Symmetry=e

 Vector    5  Occ=2.000000D+00  E=-4.232080D-01  Symmetry=a1

 Vector    6  Occ=0.000000D+00  E= 9.936297D-02  Symmetry=a1

 Vector    7  Occ=0.000000D+00  E= 1.601512D-01  Symmetry=e

 Vector    8  Occ=0.000000D+00  E= 1.601512D-01  Symmetry=e

 Vector    9  Occ=0.000000D+00  E= 1.978229D-01  Symmetry=a1

 Vector   10  Occ=0.000000D+00  E= 2.763295D-01  Symmetry=e

 Vector   11  Occ=0.000000D+00  E= 2.763295D-01  Symmetry=e

 Vector   12  Occ=0.000000D+00  E= 3.129737D-01  Symmetry=a1

 Vector   13  Occ=0.000000D+00  E= 6.567885D-01  Symmetry=e

 Vector   14  Occ=0.000000D+00  E= 6.567885D-01  Symmetry=e

 Vector   15  Occ=0.000000D+00  E= 7.963600D-01  Symmetry=a1

     Multipole analysis of the density
     ---------------------------------

     L   x y z        total         alpha         beta         nuclear
     -   - - -        -----         -----         ----         -------
     0   0 0 0     -0.000000     -5.000000     -5.000000     10.000000

     1   1 0 0     -0.000000     -0.000000     -0.000000     -0.000000
     1   0 1 0     -0.000000     -0.000000     -0.000000      0.000000
     1   0 0 1     -0.728001     -0.331561     -0.331561     -0.064878

     2   2 0 0     -4.548002     -4.624427     -4.624427      4.700852
     2   1 1 0     -0.000000     -0.000000     -0.000000     -0.000000
     2   1 0 1      0.000000      0.000000      0.000000      0.000000
     2   0 2 0     -4.548002     -4.624427     -4.624427      4.700852
     2   0 1 1      0.000000      0.000000      0.000000      0.000000

 Total times  cpu:        2.1s     wall:        2.4s
