         Total DFT energy =       -1.161922537054

 Vector    1  Occ=2.000000D+00  E=-3.808543D-01  Symmetry=a1g

 Vector    2  Occ=0.000000D+00  E= 7.957230D-02  Symmetry=a2u

 Vector    3  Occ=0.000000D+00  E= 5.527836D-01  Symmetry=a1g

 Vector    4  Occ=0.000000D+00  E= 1.057824D+00  Symmetry=a2u

@ Step       Energy      Delta E   Gmax     Grms     Xrms     Xmax   Walltime
@ ---- ---------------- -------- -------- -------- -------- -------- --------
@    0      -1.16192254  0.0D+00  0.00637  0.00637  0.00000  0.00000      0.2
         Total DFT energy =       -1.161969811778

 Vector    1  Occ=2.000000D+00  E=-3.787649D-01  Symmetry=a1g

 Vector    2  Occ=0.000000D+00  E= 7.583282D-02  Symmetry=a2u

 Vector    3  Occ=0.000000D+00  E= 5.579258D-01  Symmetry=a1g

 Vector    4  Occ=0.000000D+00  E= 1.043816D+00  Symmetry=a2u

         Total DFT energy =       -1.161976599652

 Vector    1  Occ=2.000000D+00  E=-3.793180D-01  Symmetry=a1g

 Vector    2  Occ=0.000000D+00  E= 7.682928D-02  Symmetry=a2u

 Vector    3  Occ=0.000000D+00  E= 5.565531D-01  Symmetry=a1g

 Vector    4  Occ=0.000000D+00  E= 1.047494D+00  Symmetry=a2u

@    1      -1.16197660 -5.4D-05  0.00002  0.00002  0.00493  0.00854      0.4
         Total DFT energy =       -1.161976600060

 Vector    1  Occ=2.000000D+00  E=-3.793138D-01  Symmetry=a1g

 Vector    2  Occ=0.000000D+00  E= 7.682183D-02  Symmetry=a2u

 Vector    3  Occ=0.000000D+00  E= 5.565633D-01  Symmetry=a1g

 Vector    4  Occ=0.000000D+00  E= 1.047466D+00  Symmetry=a2u

         Total DFT energy =     -1.161976600060
@    2      -1.16197660 -4.1D-10  0.00000  0.00000  0.00001  0.00002      0.6
@    2      -1.16197660 -4.1D-10  0.00000  0.00000  0.00001  0.00002      0.6

 Output coordinates in angstroms (scale by  1.889725989 to convert to a.u.)

  No.       Tag          Charge          X              Y              Z
 ---- ---------------- ---------- -------------- -------------- --------------
    1 H                    1.0000     0.00000000     0.00000000    -0.37523407
    2 H                    1.0000     0.00000000     0.00000000     0.37523407

         Total DFT energy =       -1.161976659544

 Vector    1  Occ=2.000000D+00  E=-3.793138D-01

 Vector    2  Occ=0.000000D+00  E= 7.682198D-02

 Vector    3  Occ=0.000000D+00  E= 5.565633D-01

 Vector    4  Occ=0.000000D+00  E= 1.047466D+00

 Zero-Point correction to Energy  =    6.218 kcal/mol  (  0.009909 au)
 Thermal correction to Energy     =    7.698 kcal/mol  (  0.012268 au)
 Thermal correction to Enthalpy   =    8.291 kcal/mol  (  0.013212 au)
 Total Entropy                    =   31.159 cal/mol-K
   - Translational                =   28.068 cal/mol-K (mol. weight =   2.0156)
   - Rotational                   =    3.092 cal/mol-K (symmetry #  =        2)
   - Vibrational                  =    0.000 cal/mol-K
   - Translational                  =    2.979 cal/mol-K
   - Rotational                     =    1.986 cal/mol-K
   - Vibrational                    =    0.000 cal/mol-K
 P.Frequency       -0.00        0.00        0.00        0.00        0.00     4351.58

 Normal Eigenvalue ||           Projected Infra Red Intensities
  Mode   [cm**-1]  || [atomic units] [(debye/angs)**2] [(KM/mol)] [arbitrary]
 ------ ---------- || -------------- ----------------- ---------- -----------
    1       -0.000 ||    0.000000           0.000         0.000      30.020
    2        0.000 ||    0.000000           0.000         0.000       0.000
    3        0.000 ||    0.000000           0.000         0.000       0.000
    4        0.000 ||    0.000000           0.000         0.000       0.000
    5        0.000 ||    0.000000           0.000         0.000      29.980
    6     4351.585 ||    0.000000           0.000         0.000       0.000
 ----------------------------------------------------------------------------

         Total DFT energy =       -1.161976659544

                       DFT Final Molecular Orbital Analysis
                       ------------------------------------

 Vector    1  Occ=2.000000D+00  E=-3.793138D-01  Symmetry=a1g

 Vector    2  Occ=0.000000D+00  E= 7.682198D-02  Symmetry=a2u

 Vector    3  Occ=0.000000D+00  E= 5.565633D-01  Symmetry=a1g

 Vector    4  Occ=0.000000D+00  E= 1.047466D+00  Symmetry=a2u

     Multipole analysis of the density
     ---------------------------------

     L   x y z        total         alpha         beta         nuclear
     -   - - -        -----         -----         ----         -------
     0   0 0 0     -0.000000     -1.000000     -1.000000      2.000000

     1   1 0 0      0.000000      0.000000      0.000000      0.000000
     1   0 1 0      0.000000      0.000000      0.000000      0.000000
     1   0 0 1     -0.000000     -0.000000     -0.000000      0.000000

     2   2 0 0     -1.502590     -0.751295     -0.751295      0.000000
     2   1 1 0      0.000000      0.000000      0.000000      0.000000
     2   1 0 1      0.000000      0.000000      0.000000      0.000000
     2   0 2 0     -1.502590     -0.751295     -0.751295      0.000000
     2   0 1 1      0.000000      0.000000      0.000000      0.000000

 Total times  cpu:        1.3s     wall:        1.7s
