         Total DFT energy =     -109.440754123396
@ Step       Energy      Delta E   Gmax     Grms     Xrms     Xmax   Walltime
@ ---- ---------------- -------- -------- -------- -------- -------- --------
@    0    -109.44075412  0.0D+00  0.02021  0.02021  0.00000  0.00000      0.8
         Total DFT energy =     -109.440662407143

 Vector   16  Occ=0.000000D+00  E= 1.614324D-01  Symmetry=eg

 Vector   17  Occ=0.000000D+00  E= 2.508172D-01  Symmetry=a2u

 Vector   18  Occ=0.000000D+00  E= 4.552851D-01  Symmetry=a2u

 Vector   19  Occ=0.000000D+00  E= 6.395794D-01  Symmetry=a1g

         Total DFT energy =     -109.440889331925

 Vector    1  Occ=2.000000D+00  E=-1.408791D+01  Symmetry=a1g

 Vector    2  Occ=2.000000D+00  E=-1.408671D+01  Symmetry=a2u

 Vector    3  Occ=2.000000D+00  E=-1.039905D+00  Symmetry=a1g

 Vector    4  Occ=2.000000D+00  E=-4.989646D-01  Symmetry=a2u

 Vector    5  Occ=2.000000D+00  E=-4.268576D-01  Symmetry=eu

 Vector    6  Occ=2.000000D+00  E=-4.268576D-01  Symmetry=eu

 Vector    7  Occ=2.000000D+00  E=-3.780282D-01  Symmetry=a1g

 Vector    8  Occ=0.000000D+00  E=-7.733036D-02  Symmetry=eg

 Vector    9  Occ=0.000000D+00  E=-7.733036D-02  Symmetry=eg

 Vector   10  Occ=0.000000D+00  E= 5.301745D-02  Symmetry=a1g

 Vector   11  Occ=0.000000D+00  E= 7.406239D-02  Symmetry=a2u

 Vector   12  Occ=0.000000D+00  E= 8.288161D-02  Symmetry=eu

 Vector   13  Occ=0.000000D+00  E= 8.288161D-02  Symmetry=eu

 Vector   14  Occ=0.000000D+00  E= 1.333143D-01  Symmetry=a1g

 Vector   15  Occ=0.000000D+00  E= 1.620401D-01  Symmetry=eg

 Vector   16  Occ=0.000000D+00  E= 1.620401D-01  Symmetry=eg

 Vector   17  Occ=0.000000D+00  E= 2.511087D-01  Symmetry=a2u

 Vector   18  Occ=0.000000D+00  E= 4.635931D-01  Symmetry=a2u

 Vector   19  Occ=0.000000D+00  E= 6.378065D-01  Symmetry=a1g

@    1    -109.44088933 -1.4D-04  0.00027  0.00027  0.00395  0.00684      2.1
         Total DFT energy =     -109.440889355163

 Vector    1  Occ=2.000000D+00  E=-1.408787D+01  Symmetry=a1g

 Vector    2  Occ=2.000000D+00  E=-1.408667D+01  Symmetry=a2u

 Vector    3  Occ=2.000000D+00  E=-1.039945D+00  Symmetry=a1g

 Vector    4  Occ=2.000000D+00  E=-4.989313D-01  Symmetry=a2u

 Vector    5  Occ=2.000000D+00  E=-4.268753D-01  Symmetry=eu

 Vector    6  Occ=2.000000D+00  E=-4.268753D-01  Symmetry=eu

 Vector    7  Occ=2.000000D+00  E=-3.780220D-01  Symmetry=a1g

 Vector    8  Occ=0.000000D+00  E=-7.728020D-02  Symmetry=eg

 Vector    9  Occ=0.000000D+00  E=-7.728020D-02  Symmetry=eg

 Vector   10  Occ=0.000000D+00  E= 5.302219D-02  Symmetry=a1g

 Vector   11  Occ=0.000000D+00  E= 7.406670D-02  Symmetry=a2u

 Vector   12  Occ=0.000000D+00  E= 8.288163D-02  Symmetry=eu

 Vector   13  Occ=0.000000D+00  E= 8.288163D-02  Symmetry=eu

 Vector   14  Occ=0.000000D+00  E= 1.333173D-01  Symmetry=a1g

 Vector   15  Occ=0.000000D+00  E= 1.620485D-01  Symmetry=eg

 Vector   16  Occ=0.000000D+00  E= 1.620485D-01  Symmetry=eg

 Vector   17  Occ=0.000000D+00  E= 2.511130D-01  Symmetry=a2u

 Vector   18  Occ=0.000000D+00  E= 4.636824D-01  Symmetry=a2u

 Vector   19  Occ=0.000000D+00  E= 6.377931D-01  Symmetry=a1g

         Total DFT energy =   -109.440889355163
@    2    -109.44088936 -2.3D-08  0.00002  0.00002  0.00005  0.00009      2.7
@    2    -109.44088936 -2.3D-08  0.00002  0.00002  0.00005  0.00009      2.7

 Output coordinates in angstroms (scale by  1.889725989 to convert to a.u.)

  No.       Tag          Charge          X              Y              Z
 ---- ---------------- ---------- -------------- -------------- --------------
    1 N                    7.0000     0.00000000     0.00000000    -0.55357195
    2 N                    7.0000     0.00000000     0.00000000     0.55357195

         Total DFT energy =     -109.440889360549

 Vector    1  Occ=2.000000D+00  E=-1.408789D+01

 Vector    2  Occ=2.000000D+00  E=-1.408669D+01

 Vector    3  Occ=2.000000D+00  E=-1.039958D+00

 Vector    4  Occ=2.000000D+00  E=-4.989398D-01

 Vector    5  Occ=2.000000D+00  E=-4.268852D-01

 Vector    6  Occ=2.000000D+00  E=-4.268852D-01

 Vector    7  Occ=2.000000D+00  E=-3.780311D-01

 Vector    8  Occ=0.000000D+00  E=-7.728880D-02

 Vector    9  Occ=0.000000D+00  E=-7.728880D-02

 Vector   10  Occ=0.000000D+00  E= 5.302002D-02

 Vector   11  Occ=0.000000D+00  E= 7.406541D-02

 Vector   12  Occ=0.000000D+00  E= 8.287953D-02

 Vector   13  Occ=0.000000D+00  E= 8.287953D-02

 Vector   14  Occ=0.000000D+00  E= 1.333156D-01

 Vector   15  Occ=0.000000D+00  E= 1.620464D-01

 Vector   16  Occ=0.000000D+00  E= 1.620464D-01

 Vector   17  Occ=0.000000D+00  E= 2.511116D-01

 Vector   18  Occ=0.000000D+00  E= 4.636763D-01

 Vector   19  Occ=0.000000D+00  E= 6.377883D-01

 Zero-Point correction to Energy  =    3.354 kcal/mol  (  0.005345 au)
 Thermal correction to Energy     =    4.835 kcal/mol  (  0.007705 au)
 Thermal correction to Enthalpy   =    5.427 kcal/mol  (  0.008649 au)
 Total Entropy                    =   45.772 cal/mol-K
   - Translational                =   35.908 cal/mol-K (mol. weight =  28.0061)
   - Rotational                   =    9.863 cal/mol-K (symmetry #  =        2)
   - Vibrational                  =    0.000 cal/mol-K
   - Translational                  =    2.979 cal/mol-K
   - Rotational                     =    1.986 cal/mol-K
   - Vibrational                    =    0.003 cal/mol-K
 P.Frequency        0.00        0.00        0.00        0.00        0.00     2347.52

 Normal Eigenvalue ||           Projected Infra Red Intensities
  Mode   [cm**-1]  || [atomic units] [(debye/angs)**2] [(KM/mol)] [arbitrary]
 ------ ---------- || -------------- ----------------- ---------- -----------
    1        0.000 ||    0.000000           0.000         0.000       3.235
    2        0.000 ||    0.000000           0.000         0.000       6.834
    3        0.000 ||    0.000000           0.000         0.000      10.000
    4        0.000 ||    0.000000           0.000         0.000      11.983
    5        0.000 ||    0.000000           0.000         0.000      21.460
    6     2347.517 ||    0.000000           0.000         0.000       6.489
 ----------------------------------------------------------------------------

         Total DFT energy =     -109.440889361146

                       DFT Final Molecular Orbital Analysis
                       ------------------------------------

 Vector    1  Occ=2.000000D+00  E=-1.408789D+01  Symmetry=a1g

 Vector    2  Occ=2.000000D+00  E=-1.408669D+01  Symmetry=a2u

 Vector    3  Occ=2.000000D+00  E=-1.039958D+00  Symmetry=a1g

 Vector    4  Occ=2.000000D+00  E=-4.989397D-01  Symmetry=a2u

 Vector    5  Occ=2.000000D+00  E=-4.268851D-01  Symmetry=eu

 Vector    6  Occ=2.000000D+00  E=-4.268851D-01  Symmetry=eu

 Vector    7  Occ=2.000000D+00  E=-3.780311D-01  Symmetry=a1g

 Vector    8  Occ=0.000000D+00  E=-7.728875D-02  Symmetry=eg

 Vector    9  Occ=0.000000D+00  E=-7.728875D-02  Symmetry=eg

 Vector   10  Occ=0.000000D+00  E= 5.302005D-02  Symmetry=a1g

 Vector   11  Occ=0.000000D+00  E= 7.406554D-02  Symmetry=a2u

 Vector   12  Occ=0.000000D+00  E= 8.287955D-02  Symmetry=eu

 Vector   13  Occ=0.000000D+00  E= 8.287955D-02  Symmetry=eu

 Vector   14  Occ=0.000000D+00  E= 1.333156D-01  Symmetry=a1g

 Vector   15  Occ=0.000000D+00  E= 1.620464D-01  Symmetry=eg

 Vector   16  Occ=0.000000D+00  E= 1.620464D-01  Symmetry=eg

 Vector   17  Occ=0.000000D+00  E= 2.511133D-01  Symmetry=a2u

 Vector   18  Occ=0.000000D+00  E= 4.636764D-01  Symmetry=a2u

 Vector   19  Occ=0.000000D+00  E= 6.377884D-01  Symmetry=a1g

     Multipole analysis of the density
     ---------------------------------

     L   x y z        total         alpha         beta         nuclear
     -   - - -        -----         -----         ----         -------
     0   0 0 0     -0.000000     -7.000000     -7.000000     14.000000

     1   1 0 0     -0.000000     -0.000000     -0.000000      0.000000
     1   0 1 0      0.000000      0.000000      0.000000      0.000000
     1   0 0 1      0.000000      0.000000      0.000000      0.000000

     2   2 0 0     -7.685001     -3.842500     -3.842500      0.000000
     2   1 1 0      0.000000      0.000000      0.000000      0.000000
     2   1 0 1     -0.000000     -0.000000     -0.000000      0.000000
     2   0 2 0     -7.685001     -3.842500     -3.842500      0.000000
     2   0 1 1     -0.000000     -0.000000     -0.000000      0.000000

 Total times  cpu:       16.0s     wall:       17.3s
