         Total DFT energy =       -1.176631775469

 Vector    1  Occ=2.000000D+00  E=-4.370595D-01  Symmetry=a1g

 Vector    2  Occ=0.000000D+00  E= 5.902718D-02  Symmetry=a2u

 Vector    3  Occ=0.000000D+00  E= 1.962018D-01  Symmetry=a1g

 Vector    4  Occ=0.000000D+00  E= 4.753190D-01  Symmetry=a2u

 Vector    5  Occ=0.000000D+00  E= 2.106780D+00  Symmetry=a1g

 Vector    6  Occ=0.000000D+00  E= 2.386534D+00  Symmetry=a2u

@ Step       Energy      Delta E   Gmax     Grms     Xrms     Xmax   Walltime
@ ---- ---------------- -------- -------- -------- -------- -------- --------
@    0      -1.17663178  0.0D+00  0.00035  0.00035  0.00000  0.00000      0.2
         Total DFT energy =       -1.176631922603

 Vector    1  Occ=2.000000D+00  E=-4.369210D-01  Symmetry=a1g

 Vector    2  Occ=0.000000D+00  E= 5.888991D-02  Symmetry=a2u

 Vector    3  Occ=0.000000D+00  E= 1.962433D-01  Symmetry=a1g

 Vector    4  Occ=0.000000D+00  E= 4.750312D-01  Symmetry=a2u

 Vector    5  Occ=0.000000D+00  E= 2.107657D+00  Symmetry=a1g

 Vector    6  Occ=0.000000D+00  E= 2.385699D+00  Symmetry=a2u

         Total DFT energy =     -1.176631922603
@    1      -1.17663192 -1.5D-07  0.00012  0.00012  0.00037  0.00064      0.4
@    1      -1.17663192 -1.5D-07  0.00012  0.00012  0.00037  0.00064      0.4

 Output coordinates in angstroms (scale by  1.889725989 to convert to a.u.)

  No.       Tag          Charge          X              Y              Z
 ---- ---------------- ---------- -------------- -------------- --------------
    1 H                    1.0000     0.00000000     0.00000000    -0.37103988
    2 H                    1.0000     0.00000000     0.00000000     0.37103988

         Total DFT energy =       -1.176631978376

 Vector    1  Occ=2.000000D+00  E=-4.369210D-01

 Vector    2  Occ=0.000000D+00  E= 5.888988D-02

 Vector    3  Occ=0.000000D+00  E= 1.962432D-01

 Vector    4  Occ=0.000000D+00  E= 4.750311D-01

 Vector    5  Occ=0.000000D+00  E= 2.107657D+00

 Vector    6  Occ=0.000000D+00  E= 2.385699D+00

 Zero-Point correction to Energy  =    6.275 kcal/mol  (  0.010000 au)
 Thermal correction to Energy     =    7.755 kcal/mol  (  0.012359 au)
 Thermal correction to Enthalpy   =    8.348 kcal/mol  (  0.013303 au)
 Total Entropy                    =   31.115 cal/mol-K
   - Translational                =   28.068 cal/mol-K (mol. weight =   2.0156)
   - Rotational                   =    3.047 cal/mol-K (symmetry #  =        2)
   - Vibrational                  =    0.000 cal/mol-K
   - Translational                  =    2.979 cal/mol-K
   - Rotational                     =    1.986 cal/mol-K
   - Vibrational                    =    0.000 cal/mol-K
 P.Frequency        0.00        0.00        0.00        0.00        0.00     4391.42

 Normal Eigenvalue ||           Projected Infra Red Intensities
  Mode   [cm**-1]  || [atomic units] [(debye/angs)**2] [(KM/mol)] [arbitrary]
 ------ ---------- || -------------- ----------------- ---------- -----------
    1        0.000 ||    0.000000           0.000         0.000       0.352
    2        0.000 ||    0.000000           0.000         0.000       0.367
    3        0.000 ||    0.000000           0.000         0.000      12.639
    4        0.000 ||    0.000000           0.000         0.000      16.505
    5        0.000 ||    0.000000           0.000         0.000      18.663
    6     4391.422 ||    0.000000           0.000         0.000      11.475
 ----------------------------------------------------------------------------

         Total DFT energy =       -1.126722635535

                       DFT Final Molecular Orbital Analysis
                       ------------------------------------

 Vector    1  Occ=2.000000D+00  E=-5.951867D-01  Symmetry=a1g

 Vector    2  Occ=0.000000D+00  E= 2.379163D-01  Symmetry=a2u

 Vector    3  Occ=0.000000D+00  E= 7.757271D-01  Symmetry=a1g

 Vector    4  Occ=0.000000D+00  E= 1.401673D+00  Symmetry=a2u

     Multipole analysis of the density
     ---------------------------------

     L   x y z        total         alpha         beta         nuclear
     -   - - -        -----         -----         ----         -------
     0   0 0 0     -0.000000     -1.000000     -1.000000      2.000000

     1   1 0 0      0.000000      0.000000      0.000000      0.000000
     1   0 1 0      0.000000      0.000000      0.000000      0.000000
     1   0 0 1     -0.000000     -0.000000     -0.000000      0.000000

     2   2 0 0     -1.521316     -0.760658     -0.760658      0.000000
     2   1 1 0      0.000000      0.000000      0.000000      0.000000
     2   1 0 1      0.000000      0.000000      0.000000      0.000000
     2   0 2 0     -1.521316     -0.760658     -0.760658      0.000000
     2   0 1 1      0.000000      0.000000      0.000000      0.000000

 Total times  cpu:        1.1s     wall:        1.4s
