 Output coordinates in angstroms (scale by  1.889725989 to convert to a.u.)

  No.       Tag          Charge          X              Y              Z
 ---- ---------------- ---------- -------------- -------------- --------------
    1 N                    7.0000     0.00000000     0.00000000     0.00000000

         Total DFT energy =      -54.598543769141

                    DFT Final Alpha Molecular Orbital Analysis
                    ------------------------------------------

 Vector    1  Occ=1.000000D+00  E=-1.442213D+01

 Vector    2  Occ=1.000000D+00  E=-8.057525D-01

 Vector    3  Occ=1.000000D+00  E=-3.514897D-01

 Vector    4  Occ=1.000000D+00  E=-3.514883D-01

 Vector    5  Occ=1.000000D+00  E=-3.514883D-01

 Vector    6  Occ=0.000000D+00  E= 5.382933D-01

 Vector    7  Occ=0.000000D+00  E= 5.382934D-01

 Vector    8  Occ=0.000000D+00  E= 5.382934D-01

 Vector    9  Occ=0.000000D+00  E= 5.948631D-01

 Vector   10  Occ=0.000000D+00  E= 3.521963D+00

 Vector   11  Occ=0.000000D+00  E= 3.521964D+00

 Vector   12  Occ=0.000000D+00  E= 3.521964D+00

 Vector   13  Occ=0.000000D+00  E= 3.498384D+01

 Vector    1  Occ=1.000000D+00  E=-1.436310D+01

 Vector    2  Occ=1.000000D+00  E=-6.103723D-01

 Vector    3  Occ=0.000000D+00  E=-1.007235D-01

 Vector    4  Occ=0.000000D+00  E=-1.007235D-01

 Vector    5  Occ=0.000000D+00  E=-1.007230D-01

 Vector    6  Occ=0.000000D+00  E= 6.329232D-01

 Vector    7  Occ=0.000000D+00  E= 6.329232D-01

 Vector    8  Occ=0.000000D+00  E= 6.329235D-01

 Vector    9  Occ=0.000000D+00  E= 6.878243D-01

 Vector   10  Occ=0.000000D+00  E= 3.648635D+00

 Vector   11  Occ=0.000000D+00  E= 3.648635D+00

 Vector   12  Occ=0.000000D+00  E= 3.648636D+00

 Vector   13  Occ=0.000000D+00  E= 3.504433D+01

 Total times  cpu:        0.2s     wall:        0.4s
