         Total DFT energy =     -109.410593932877
@ Step       Energy      Delta E   Gmax     Grms     Xrms     Xmax   Walltime
@ ---- ---------------- -------- -------- -------- -------- -------- --------
@    0    -109.41059393  0.0D+00  0.04777  0.04777  0.00000  0.00000      0.5
         Total DFT energy =     -109.409991350950

 Vector   16  Occ=0.000000D+00  E= 1.609981D-01  Symmetry=eg

 Vector   17  Occ=0.000000D+00  E= 2.512577D-01  Symmetry=a2u

 Vector   18  Occ=0.000000D+00  E= 4.434359D-01  Symmetry=a2u

 Vector   19  Occ=0.000000D+00  E= 7.286765D-01  Symmetry=a1g

         Total DFT energy =     -109.411308805454

 Vector    1  Occ=2.000000D+00  E=-1.411921D+01  Symmetry=a1g

 Vector    2  Occ=2.000000D+00  E=-1.411813D+01  Symmetry=a2u

 Vector    3  Occ=2.000000D+00  E=-1.035019D+00  Symmetry=a1g

 Vector    4  Occ=2.000000D+00  E=-5.022429D-01  Symmetry=a2u

 Vector    5  Occ=2.000000D+00  E=-4.233338D-01  Symmetry=eu

 Vector    6  Occ=2.000000D+00  E=-4.233338D-01  Symmetry=eu

 Vector    7  Occ=2.000000D+00  E=-3.765437D-01  Symmetry=a1g

 Vector    8  Occ=0.000000D+00  E=-8.077976D-02  Symmetry=eg

 Vector    9  Occ=0.000000D+00  E=-8.077976D-02  Symmetry=eg

 Vector   10  Occ=0.000000D+00  E= 5.398882D-02  Symmetry=a1g

 Vector   11  Occ=0.000000D+00  E= 7.275904D-02  Symmetry=a2u

 Vector   12  Occ=0.000000D+00  E= 8.420690D-02  Symmetry=eu

 Vector   13  Occ=0.000000D+00  E= 8.420690D-02  Symmetry=eu

 Vector   14  Occ=0.000000D+00  E= 1.328897D-01  Symmetry=a1g

 Vector   15  Occ=0.000000D+00  E= 1.623464D-01  Symmetry=eg

 Vector   16  Occ=0.000000D+00  E= 1.623464D-01  Symmetry=eg

 Vector   17  Occ=0.000000D+00  E= 2.519363D-01  Symmetry=a2u

 Vector   18  Occ=0.000000D+00  E= 4.664582D-01  Symmetry=a2u

 Vector   19  Occ=0.000000D+00  E= 7.214825D-01  Symmetry=a1g

@    1    -109.41130881 -7.1D-04  0.00158  0.00158  0.00913  0.01582      1.2
         Total DFT energy =     -109.411309651171

 Vector    1  Occ=2.000000D+00  E=-1.411909D+01  Symmetry=a1g

 Vector    2  Occ=2.000000D+00  E=-1.411801D+01  Symmetry=a2u

 Vector    3  Occ=2.000000D+00  E=-1.035316D+00  Symmetry=a1g

 Vector    4  Occ=2.000000D+00  E=-5.021047D-01  Symmetry=a2u

 Vector    5  Occ=2.000000D+00  E=-4.234858D-01  Symmetry=eu

 Vector    6  Occ=2.000000D+00  E=-4.234858D-01  Symmetry=eu

 Vector    7  Occ=2.000000D+00  E=-3.765571D-01  Symmetry=a1g

 Vector    8  Occ=0.000000D+00  E=-8.055216D-02  Symmetry=eg

 Vector    9  Occ=0.000000D+00  E=-8.055216D-02  Symmetry=eg

 Vector   10  Occ=0.000000D+00  E= 5.400349D-02  Symmetry=a1g

 Vector   11  Occ=0.000000D+00  E= 7.277467D-02  Symmetry=a2u

 Vector   12  Occ=0.000000D+00  E= 8.419535D-02  Symmetry=eu

 Vector   13  Occ=0.000000D+00  E= 8.419535D-02  Symmetry=eu

 Vector   14  Occ=0.000000D+00  E= 1.328964D-01  Symmetry=a1g

 Vector   15  Occ=0.000000D+00  E= 1.623796D-01  Symmetry=eg

 Vector   16  Occ=0.000000D+00  E= 1.623796D-01  Symmetry=eg

 Vector   17  Occ=0.000000D+00  E= 2.519521D-01  Symmetry=a2u

 Vector   18  Occ=0.000000D+00  E= 4.669880D-01  Symmetry=a2u

 Vector   19  Occ=0.000000D+00  E= 7.213105D-01  Symmetry=a1g

         Total DFT energy =   -109.411309651171
@    2    -109.41130965 -8.5D-07  0.00009  0.00009  0.00029  0.00051      1.7
@    2    -109.41130965 -8.5D-07  0.00009  0.00009  0.00029  0.00051      1.7

 Output coordinates in angstroms (scale by  1.889725989 to convert to a.u.)

  No.       Tag          Charge          X              Y              Z
 ---- ---------------- ---------- -------------- -------------- --------------
    1 N                    7.0000     0.00000000     0.00000000    -0.55810095
    2 N                    7.0000     0.00000000     0.00000000     0.55810095

         Total DFT energy =     -109.411310228869

 Vector    1  Occ=2.000000D+00  E=-1.411909D+01

 Vector    2  Occ=2.000000D+00  E=-1.411801D+01

 Vector    3  Occ=2.000000D+00  E=-1.035316D+00

 Vector    4  Occ=2.000000D+00  E=-5.021037D-01

 Vector    5  Occ=2.000000D+00  E=-4.234849D-01

 Vector    6  Occ=2.000000D+00  E=-4.234849D-01

 Vector    7  Occ=2.000000D+00  E=-3.765560D-01

 Vector    8  Occ=0.000000D+00  E=-8.055115D-02

 Vector    9  Occ=0.000000D+00  E=-8.055115D-02

 Vector   10  Occ=0.000000D+00  E= 5.400391D-02

 Vector   11  Occ=0.000000D+00  E= 7.277504D-02

 Vector   12  Occ=0.000000D+00  E= 8.419557D-02

 Vector   13  Occ=0.000000D+00  E= 8.419558D-02

 Vector   14  Occ=0.000000D+00  E= 1.328966D-01

 Vector   15  Occ=0.000000D+00  E= 1.623800D-01

 Vector   16  Occ=0.000000D+00  E= 1.623800D-01

 Vector   17  Occ=0.000000D+00  E= 2.519525D-01

 Vector   18  Occ=0.000000D+00  E= 4.669885D-01

 Vector   19  Occ=0.000000D+00  E= 7.213110D-01

 Zero-Point correction to Energy  =    3.370 kcal/mol  (  0.005370 au)
 Thermal correction to Energy     =    4.850 kcal/mol  (  0.007730 au)
 Thermal correction to Enthalpy   =    5.443 kcal/mol  (  0.008673 au)
 Total Entropy                    =   45.804 cal/mol-K
   - Translational                =   35.908 cal/mol-K (mol. weight =  28.0061)
   - Rotational                   =    9.896 cal/mol-K (symmetry #  =        2)
   - Vibrational                  =    0.000 cal/mol-K
   - Translational                  =    2.979 cal/mol-K
   - Rotational                     =    1.986 cal/mol-K
   - Vibrational                    =    0.003 cal/mol-K
 P.Frequency       -0.00       -0.00        0.00        0.00        0.00     2358.32

 Normal Eigenvalue ||           Projected Infra Red Intensities
  Mode   [cm**-1]  || [atomic units] [(debye/angs)**2] [(KM/mol)] [arbitrary]
 ------ ---------- || -------------- ----------------- ---------- -----------
    1       -0.000 ||    0.000000           0.000         0.000      15.886
    2       -0.000 ||    0.000000           0.000         0.000      10.088
    3        0.000 ||    0.000000           0.000         0.000      13.781
    4        0.000 ||    0.000000           0.000         0.000       7.902
    5        0.000 ||    0.000000           0.000         0.000       0.071
    6     2358.324 ||    0.000000           0.000         0.000      12.273
 ----------------------------------------------------------------------------

         Total DFT energy =     -109.559664750549

                       DFT Final Molecular Orbital Analysis
                       ------------------------------------

 Vector    1  Occ=2.000000D+00  E=-1.443403D+01  Symmetry=a1g

 Vector    2  Occ=2.000000D+00  E=-1.443248D+01  Symmetry=a2u

 Vector    3  Occ=2.000000D+00  E=-1.128607D+00  Symmetry=a1g

 Vector    4  Occ=2.000000D+00  E=-5.662990D-01  Symmetry=a2u

 Vector    5  Occ=2.000000D+00  E=-4.704402D-01  Symmetry=eu

 Vector    6  Occ=2.000000D+00  E=-4.704402D-01  Symmetry=eu

 Vector    7  Occ=2.000000D+00  E=-4.400733D-01  Symmetry=a1g

 Vector    8  Occ=0.000000D+00  E=-4.700873D-02  Symmetry=eg

 Vector    9  Occ=0.000000D+00  E=-4.700873D-02  Symmetry=eg

 Vector   10  Occ=0.000000D+00  E= 6.174881D-02  Symmetry=a1g

 Vector   11  Occ=0.000000D+00  E= 7.967812D-02  Symmetry=a2u

 Vector   12  Occ=0.000000D+00  E= 9.109760D-02  Symmetry=eu

 Vector   13  Occ=0.000000D+00  E= 9.109760D-02  Symmetry=eu

 Vector   14  Occ=0.000000D+00  E= 1.404371D-01  Symmetry=a1g

 Vector   15  Occ=0.000000D+00  E= 1.709006D-01  Symmetry=eg

 Vector   16  Occ=0.000000D+00  E= 1.709006D-01  Symmetry=eg

 Vector   17  Occ=0.000000D+00  E= 2.570891D-01  Symmetry=a2u

 Vector   18  Occ=0.000000D+00  E= 4.909228D-01  Symmetry=a2u

 Vector   19  Occ=0.000000D+00  E= 6.673132D-01  Symmetry=a1g

     Multipole analysis of the density
     ---------------------------------

     L   x y z        total         alpha         beta         nuclear
     -   - - -        -----         -----         ----         -------
     0   0 0 0     -0.000000     -7.000000     -7.000000     14.000000

     1   1 0 0      0.000000      0.000000      0.000000      0.000000
     1   0 1 0      0.000000      0.000000      0.000000      0.000000
     1   0 0 1     -0.000000     -0.000000     -0.000000      0.000000

     2   2 0 0     -7.720435     -3.860218     -3.860218      0.000000
     2   1 1 0     -0.000000     -0.000000     -0.000000      0.000000
     2   1 0 1     -0.000000     -0.000000     -0.000000      0.000000
     2   0 2 0     -7.720435     -3.860218     -3.860218      0.000000
     2   0 1 1      0.000000      0.000000      0.000000      0.000000

 Total times  cpu:       12.4s     wall:       13.1s
