         Total DFT energy =      -56.170932614623
@ Step       Energy      Delta E   Gmax     Grms     Xrms     Xmax   Walltime
@ ---- ---------------- -------- -------- -------- -------- -------- --------
@    0     -56.17093261  0.0D+00  0.06235  0.03607  0.00000  0.00000      0.3
         Total DFT energy =      -56.189414770152
         Total DFT energy =      -56.189156141024

 Vector   11  Occ=0.000000D+00  E= 3.606481D-01  Symmetry=e

 Vector   12  Occ=0.000000D+00  E= 3.996165D-01  Symmetry=a1

 Vector   13  Occ=0.000000D+00  E= 1.068561D+00  Symmetry=e

 Vector   14  Occ=0.000000D+00  E= 1.068561D+00  Symmetry=e

 Vector   15  Occ=0.000000D+00  E= 1.145498D+00  Symmetry=a1

@    1     -56.18915614 -1.8D-02  0.01183  0.00628  0.09274  0.17796      0.7
         Total DFT energy =      -56.189461641534

 Vector    1  Occ=2.000000D+00  E=-1.554907D+01  Symmetry=a1

 Vector    2  Occ=2.000000D+00  E=-1.147173D+00  Symmetry=a1

 Vector    3  Occ=2.000000D+00  E=-6.373447D-01  Symmetry=e

 Vector    4  Occ=2.000000D+00  E=-6.373447D-01  Symmetry=e

 Vector    5  Occ=2.000000D+00  E=-4.240987D-01  Symmetry=a1

 Vector    6  Occ=0.000000D+00  E= 1.148655D-01  Symmetry=a1

 Vector    7  Occ=0.000000D+00  E= 1.693810D-01  Symmetry=e

 Vector    8  Occ=0.000000D+00  E= 1.693810D-01  Symmetry=e

 Vector    9  Occ=0.000000D+00  E= 2.041250D-01  Symmetry=a1

 Vector   10  Occ=0.000000D+00  E= 3.543037D-01  Symmetry=e

 Vector   11  Occ=0.000000D+00  E= 3.543037D-01  Symmetry=e

 Vector   12  Occ=0.000000D+00  E= 3.967485D-01  Symmetry=a1

 Vector   13  Occ=0.000000D+00  E= 1.075705D+00  Symmetry=e

 Vector   14  Occ=0.000000D+00  E= 1.075705D+00  Symmetry=e

 Vector   15  Occ=0.000000D+00  E= 1.147436D+00  Symmetry=a1

         Total DFT energy =      -56.189499439915

 Vector    1  Occ=2.000000D+00  E=-1.554759D+01  Symmetry=a1

 Vector    2  Occ=2.000000D+00  E=-1.148757D+00  Symmetry=a1

 Vector    3  Occ=2.000000D+00  E=-6.393118D-01  Symmetry=e

 Vector    4  Occ=2.000000D+00  E=-6.393118D-01  Symmetry=e

 Vector    5  Occ=2.000000D+00  E=-4.235530D-01  Symmetry=a1

 Vector    6  Occ=0.000000D+00  E= 1.150959D-01  Symmetry=a1

 Vector    7  Occ=0.000000D+00  E= 1.691229D-01  Symmetry=e

 Vector    8  Occ=0.000000D+00  E= 1.691229D-01  Symmetry=e

 Vector    9  Occ=0.000000D+00  E= 2.041580D-01  Symmetry=a1

 Vector   10  Occ=0.000000D+00  E= 3.559205D-01  Symmetry=e

 Vector   11  Occ=0.000000D+00  E= 3.559205D-01  Symmetry=e

 Vector   12  Occ=0.000000D+00  E= 3.974690D-01  Symmetry=a1

 Vector   13  Occ=0.000000D+00  E= 1.073892D+00  Symmetry=e

 Vector   14  Occ=0.000000D+00  E= 1.073892D+00  Symmetry=e

 Vector   15  Occ=0.000000D+00  E= 1.146945D+00  Symmetry=a1

@    2     -56.18949944 -3.4D-04  0.00010  0.00004  0.00927  0.02064      1.1
         Total DFT energy =      -56.189499493081

 Vector    1  Occ=2.000000D+00  E=-1.554766D+01  Symmetry=a1

 Vector    2  Occ=2.000000D+00  E=-1.148821D+00  Symmetry=a1

 Vector    3  Occ=2.000000D+00  E=-6.392693D-01  Symmetry=e

 Vector    4  Occ=2.000000D+00  E=-6.392693D-01  Symmetry=e

 Vector    5  Occ=2.000000D+00  E=-4.236640D-01  Symmetry=a1

 Vector    6  Occ=0.000000D+00  E= 1.150524D-01  Symmetry=a1

 Vector    7  Occ=0.000000D+00  E= 1.691374D-01  Symmetry=e

 Vector    8  Occ=0.000000D+00  E= 1.691374D-01  Symmetry=e

 Vector    9  Occ=0.000000D+00  E= 2.041587D-01  Symmetry=a1

 Vector   10  Occ=0.000000D+00  E= 3.558790D-01  Symmetry=e

 Vector   11  Occ=0.000000D+00  E= 3.558790D-01  Symmetry=e

 Vector   12  Occ=0.000000D+00  E= 3.975649D-01  Symmetry=a1

 Vector   13  Occ=0.000000D+00  E= 1.073862D+00  Symmetry=e

 Vector   14  Occ=0.000000D+00  E= 1.073862D+00  Symmetry=e

 Vector   15  Occ=0.000000D+00  E= 1.146980D+00  Symmetry=a1

         Total DFT energy =    -56.189499493081
@    3     -56.18949949 -5.3D-08  0.00002  0.00001  0.00029  0.00072      1.4
@    3     -56.18949949 -5.3D-08  0.00002  0.00001  0.00029  0.00072      1.4

 Output coordinates in angstroms (scale by  1.889725989 to convert to a.u.)

  No.       Tag          Charge          X              Y              Z
 ---- ---------------- ---------- -------------- -------------- --------------
    1 N                    7.0000    -0.00000000    -0.00000000     0.10326541
    2 H                    1.0000     0.66241300     0.66241300    -0.25239659
    3 H                    1.0000     0.24245999    -0.90487299    -0.25239659
    4 H                    1.0000    -0.90487299     0.24245999    -0.25239659

         Total DFT energy =      -56.162470218501

 Vector    1  Occ=2.000000D+00  E=-1.553406D+01

 Vector    2  Occ=2.000000D+00  E=-1.149524D+00

 Vector    3  Occ=2.000000D+00  E=-6.300592D-01

 Vector    4  Occ=2.000000D+00  E=-6.300592D-01

 Vector    5  Occ=2.000000D+00  E=-4.112995D-01

 Vector    6  Occ=0.000000D+00  E= 2.190658D-01

 Vector    7  Occ=0.000000D+00  E= 3.222603D-01

 Vector    8  Occ=0.000000D+00  E= 3.222603D-01

 Vector    9  Occ=0.000000D+00  E= 9.274840D-01

 Vector   10  Occ=0.000000D+00  E= 9.274840D-01

 Vector   11  Occ=0.000000D+00  E= 9.773134D-01

 Vector   12  Occ=0.000000D+00  E= 1.239620D+00

 Vector   13  Occ=0.000000D+00  E= 1.251659D+00

 Vector   14  Occ=0.000000D+00  E= 1.251659D+00

 Vector   15  Occ=0.000000D+00  E= 1.499305D+00

 Zero-Point correction to Energy  =   23.291 kcal/mol  (  0.037116 au)
 Thermal correction to Energy     =   25.079 kcal/mol  (  0.039967 au)
 Thermal correction to Enthalpy   =   25.672 kcal/mol  (  0.040910 au)
 Total Entropy                    =   45.836 cal/mol-K
   - Translational                =   34.425 cal/mol-K (mol. weight =  17.0265)
   - Rotational                   =   11.363 cal/mol-K (symmetry #  =        3)
   - Vibrational                  =    0.047 cal/mol-K
   - Translational                  =    2.979 cal/mol-K
   - Rotational                     =    2.979 cal/mol-K
   - Vibrational                    =    0.248 cal/mol-K
 P.Frequency       -0.00       -0.00        0.00        0.00        0.00        0.00
 P.Frequency     1190.26     1886.73     1886.73     3681.89     3827.12     3827.12

 Normal Eigenvalue ||           Projected Infra Red Intensities
  Mode   [cm**-1]  || [atomic units] [(debye/angs)**2] [(KM/mol)] [arbitrary]
 ------ ---------- || -------------- ----------------- ---------- -----------
    1       -0.000 ||    0.000360           0.008         0.351       0.069
    2       -0.000 ||    0.000234           0.005         0.229       0.045
    3        0.000 ||    0.000089           0.002         0.087       0.017
    4        0.000 ||    0.027065           0.624        26.384       5.207
    5        0.000 ||    0.103556           2.389       100.951      19.922
    6        0.000 ||    0.130751           3.017       127.463      25.154
    7     1190.264 ||    0.308374           7.114       300.618      59.326
    8     1886.728 ||    0.026424           0.610        25.759       5.083
    9     1886.728 ||    0.026424           0.610        25.759       5.083
   10     3681.892 ||    0.000322           0.007         0.314       0.062
   11     3827.116 ||    0.000077           0.002         0.075       0.015
   12     3827.116 ||    0.000077           0.002         0.075       0.015
 ----------------------------------------------------------------------------

         Total DFT energy =      -56.179009301461

                       DFT Final Molecular Orbital Analysis
                       ------------------------------------

 Vector    1  Occ=2.000000D+00  E=-1.553029D+01  Symmetry=a1

 Vector    2  Occ=2.000000D+00  E=-1.150901D+00  Symmetry=a1

 Vector    3  Occ=2.000000D+00  E=-6.316086D-01  Symmetry=e

 Vector    4  Occ=2.000000D+00  E=-6.316086D-01  Symmetry=e

 Vector    5  Occ=2.000000D+00  E=-4.151920D-01  Symmetry=a1

 Vector    6  Occ=0.000000D+00  E= 1.528294D-01  Symmetry=a1

 Vector    7  Occ=0.000000D+00  E= 2.287325D-01  Symmetry=e

 Vector    8  Occ=0.000000D+00  E= 2.287325D-01  Symmetry=e

 Vector    9  Occ=0.000000D+00  E= 5.212895D-01  Symmetry=e

 Vector   10  Occ=0.000000D+00  E= 5.212895D-01  Symmetry=e

 Vector   11  Occ=0.000000D+00  E= 6.528561D-01  Symmetry=a1

 Vector   12  Occ=0.000000D+00  E= 8.293087D-01  Symmetry=a1

 Vector   13  Occ=0.000000D+00  E= 9.730213D-01  Symmetry=e

 Vector   14  Occ=0.000000D+00  E= 9.730213D-01  Symmetry=e

 Vector   15  Occ=0.000000D+00  E= 1.229405D+00  Symmetry=a1

     Multipole analysis of the density
     ---------------------------------

     L   x y z        total         alpha         beta         nuclear
     -   - - -        -----         -----         ----         -------
     0   0 0 0     -0.000000     -5.000000     -5.000000     10.000000

     1   1 0 0      0.000000      0.000000      0.000000     -0.000000
     1   0 1 0     -0.000000     -0.000000     -0.000000      0.000000
     1   0 0 1     -0.811964     -0.373543     -0.373543     -0.064878

     2   2 0 0     -4.499695     -4.600274     -4.600274      4.700852
     2   1 1 0     -0.000000     -0.000000     -0.000000     -0.000000
     2   1 0 1      0.000000      0.000000      0.000000      0.000000
     2   0 2 0     -4.499695     -4.600274     -4.600274      4.700852
     2   0 1 1      0.000000      0.000000      0.000000      0.000000

 Total times  cpu:        1.5s     wall:        2.0s
