         Total DFT energy =      -56.470653961541
@ Step       Energy      Delta E   Gmax     Grms     Xrms     Xmax   Walltime
@ ---- ---------------- -------- -------- -------- -------- -------- --------
@    0     -56.47065396  0.0D+00  0.04252  0.02381  0.00000  0.00000      0.7
         Total DFT energy =      -56.479863287758
         Total DFT energy =      -56.480048240217

 Vector   11  Occ=0.000000D+00  E= 1.669692D-01  Symmetry=e

 Vector   12  Occ=0.000000D+00  E= 2.292583D-01  Symmetry=a1

 Vector   13  Occ=0.000000D+00  E= 8.042228D-01  Symmetry=e

 Vector   14  Occ=0.000000D+00  E= 8.042228D-01  Symmetry=e

 Vector   15  Occ=0.000000D+00  E= 8.395268D-01  Symmetry=a1

@    1     -56.48004824 -9.4D-03  0.00470  0.00287  0.07658  0.14740      1.9
         Total DFT energy =      -56.480130554175

 Vector    1  Occ=2.000000D+00  E=-1.399460D+01  Symmetry=a1

 Vector    2  Occ=2.000000D+00  E=-7.780146D-01  Symmetry=a1

 Vector    3  Occ=2.000000D+00  E=-4.157791D-01  Symmetry=e

 Vector    4  Occ=2.000000D+00  E=-4.157791D-01  Symmetry=e

 Vector    5  Occ=2.000000D+00  E=-2.203435D-01  Symmetry=a1

 Vector    6  Occ=0.000000D+00  E= 8.712958D-04  Symmetry=a1

 Vector    7  Occ=0.000000D+00  E= 7.775503D-02  Symmetry=e

 Vector    8  Occ=0.000000D+00  E= 7.775503D-02  Symmetry=e

 Vector    9  Occ=0.000000D+00  E= 1.071388D-01  Symmetry=a1

 Vector   10  Occ=0.000000D+00  E= 1.637427D-01  Symmetry=e

 Vector   11  Occ=0.000000D+00  E= 1.637427D-01  Symmetry=e

 Vector   12  Occ=0.000000D+00  E= 2.266541D-01  Symmetry=a1

 Vector   13  Occ=0.000000D+00  E= 8.056441D-01  Symmetry=e

 Vector   14  Occ=0.000000D+00  E= 8.056441D-01  Symmetry=e

 Vector   15  Occ=0.000000D+00  E= 8.395394D-01  Symmetry=a1

         Total DFT energy =      -56.480135817546

 Vector    1  Occ=2.000000D+00  E=-1.399412D+01  Symmetry=a1

 Vector    2  Occ=2.000000D+00  E=-7.785510D-01  Symmetry=a1

 Vector    3  Occ=2.000000D+00  E=-4.162009D-01  Symmetry=e

 Vector    4  Occ=2.000000D+00  E=-4.162009D-01  Symmetry=e

 Vector    5  Occ=2.000000D+00  E=-2.202844D-01  Symmetry=a1

 Vector    6  Occ=0.000000D+00  E= 1.068043D-03  Symmetry=a1

 Vector    7  Occ=0.000000D+00  E= 7.780846D-02  Symmetry=e

 Vector    8  Occ=0.000000D+00  E= 7.780846D-02  Symmetry=e

 Vector    9  Occ=0.000000D+00  E= 1.071730D-01  Symmetry=a1

 Vector   10  Occ=0.000000D+00  E= 1.643896D-01  Symmetry=e

 Vector   11  Occ=0.000000D+00  E= 1.643896D-01  Symmetry=e

 Vector   12  Occ=0.000000D+00  E= 2.271758D-01  Symmetry=a1

 Vector   13  Occ=0.000000D+00  E= 8.053872D-01  Symmetry=e

 Vector   14  Occ=0.000000D+00  E= 8.053872D-01  Symmetry=e

 Vector   15  Occ=0.000000D+00  E= 8.395417D-01  Symmetry=a1

@    2     -56.48013582 -8.8D-05  0.00015  0.00006  0.00520  0.00928      3.0
         Total DFT energy =      -56.480136012764

 Vector    1  Occ=2.000000D+00  E=-1.399409D+01  Symmetry=a1

 Vector    2  Occ=2.000000D+00  E=-7.784678D-01  Symmetry=a1

 Vector    3  Occ=2.000000D+00  E=-4.162769D-01  Symmetry=e

 Vector    4  Occ=2.000000D+00  E=-4.162769D-01  Symmetry=e

 Vector    5  Occ=2.000000D+00  E=-2.201583D-01  Symmetry=a1

 Vector    6  Occ=0.000000D+00  E= 1.111512D-03  Symmetry=a1

 Vector    7  Occ=0.000000D+00  E= 7.778756D-02  Symmetry=e

 Vector    8  Occ=0.000000D+00  E= 7.778756D-02  Symmetry=e

 Vector    9  Occ=0.000000D+00  E= 1.071616D-01  Symmetry=a1

 Vector   10  Occ=0.000000D+00  E= 1.644482D-01  Symmetry=e

 Vector   11  Occ=0.000000D+00  E= 1.644482D-01  Symmetry=e

 Vector   12  Occ=0.000000D+00  E= 2.270017D-01  Symmetry=a1

 Vector   13  Occ=0.000000D+00  E= 8.053656D-01  Symmetry=e

 Vector   14  Occ=0.000000D+00  E= 8.053656D-01  Symmetry=e

 Vector   15  Occ=0.000000D+00  E= 8.394474D-01  Symmetry=a1

         Total DFT energy =    -56.480136012764
@    3     -56.48013601 -2.0D-07  0.00002  0.00001  0.00050  0.00120      3.6
@    3     -56.48013601 -2.0D-07  0.00002  0.00001  0.00050  0.00120      3.6

 Output coordinates in angstroms (scale by  1.889725989 to convert to a.u.)

  No.       Tag          Charge          X              Y              Z
 ---- ---------------- ---------- -------------- -------------- --------------
    1 N                    7.0000     0.00000000     0.00000000     0.12191987
    2 H                    1.0000     0.67355317     0.67355317    -0.25861475
    3 H                    1.0000     0.24653757    -0.92009074    -0.25861475
    4 H                    1.0000    -0.92009074     0.24653757    -0.25861475

         Total DFT energy =      -56.480136281963

 Vector    1  Occ=2.000000D+00  E=-1.399409D+01

 Vector    2  Occ=2.000000D+00  E=-7.784679D-01

 Vector    3  Occ=2.000000D+00  E=-4.162768D-01

 Vector    4  Occ=2.000000D+00  E=-4.162768D-01

 Vector    5  Occ=2.000000D+00  E=-2.201583D-01

 Vector    6  Occ=0.000000D+00  E= 1.111408D-03

 Vector    7  Occ=0.000000D+00  E= 7.778759D-02

 Vector    8  Occ=0.000000D+00  E= 7.778761D-02

 Vector    9  Occ=0.000000D+00  E= 1.071614D-01

 Vector   10  Occ=0.000000D+00  E= 1.644482D-01

 Vector   11  Occ=0.000000D+00  E= 1.644482D-01

 Vector   12  Occ=0.000000D+00  E= 2.270015D-01

 Vector   13  Occ=0.000000D+00  E= 8.053655D-01

 Vector   14  Occ=0.000000D+00  E= 8.053655D-01

 Vector   15  Occ=0.000000D+00  E= 8.394478D-01

 Zero-Point correction to Energy  =   21.182 kcal/mol  (  0.033755 au)
 Thermal correction to Energy     =   22.980 kcal/mol  (  0.036622 au)
 Thermal correction to Enthalpy   =   23.573 kcal/mol  (  0.037565 au)
 Total Entropy                    =   46.016 cal/mol-K
   - Translational                =   34.425 cal/mol-K (mol. weight =  17.0265)
   - Rotational                   =   11.503 cal/mol-K (symmetry #  =        3)
   - Vibrational                  =    0.087 cal/mol-K
   - Translational                  =    2.979 cal/mol-K
   - Rotational                     =    2.979 cal/mol-K
   - Vibrational                    =    0.405 cal/mol-K
 P.Frequency       -0.00        0.00        0.00        0.00        0.00        0.00
 P.Frequency     1050.41     1676.29     1676.29     3378.07     3521.44     3521.44

 Normal Eigenvalue ||           Projected Infra Red Intensities
  Mode   [cm**-1]  || [atomic units] [(debye/angs)**2] [(KM/mol)] [arbitrary]
 ------ ---------- || -------------- ----------------- ---------- -----------
    1       -0.000 ||    0.084363           1.946        82.241      21.012
    2        0.000 ||    0.000232           0.005         0.226       0.058
    3        0.000 ||    0.071551           1.651        69.751      17.821
    4        0.000 ||    0.000105           0.002         0.102       0.026
    5        0.000 ||    0.013070           0.302        12.742       3.255
    6        0.000 ||    0.000019           0.000         0.018       0.005
    7     1050.413 ||    0.241133           5.563       235.068      60.059
    8     1676.291 ||    0.031731           0.732        30.933       7.903
    9     1676.292 ||    0.031731           0.732        30.933       7.903
   10     3378.070 ||    0.004005           0.092         3.904       0.998
   11     3521.436 ||    0.001928           0.044         1.879       0.480
   12     3521.437 ||    0.001928           0.044         1.879       0.480
 ----------------------------------------------------------------------------

         Total DFT energy =      -56.480136213063

                       DFT Final Molecular Orbital Analysis
                       ------------------------------------

 Vector    1  Occ=2.000000D+00  E=-1.399409D+01  Symmetry=a1

 Vector    2  Occ=2.000000D+00  E=-7.784680D-01  Symmetry=a1

 Vector    3  Occ=2.000000D+00  E=-4.162769D-01  Symmetry=e

 Vector    4  Occ=2.000000D+00  E=-4.162769D-01  Symmetry=e

 Vector    5  Occ=2.000000D+00  E=-2.201584D-01  Symmetry=a1

 Vector    6  Occ=0.000000D+00  E= 1.111359D-03  Symmetry=a1

 Vector    7  Occ=0.000000D+00  E= 7.778758D-02  Symmetry=e

 Vector    8  Occ=0.000000D+00  E= 7.778758D-02  Symmetry=e

 Vector    9  Occ=0.000000D+00  E= 1.071613D-01  Symmetry=a1

 Vector   10  Occ=0.000000D+00  E= 1.644481D-01  Symmetry=e

 Vector   11  Occ=0.000000D+00  E= 1.644481D-01  Symmetry=e

 Vector   12  Occ=0.000000D+00  E= 2.270015D-01  Symmetry=a1

 Vector   13  Occ=0.000000D+00  E= 8.053654D-01  Symmetry=e

 Vector   14  Occ=0.000000D+00  E= 8.053654D-01  Symmetry=e

 Vector   15  Occ=0.000000D+00  E= 8.394478D-01  Symmetry=a1

     Multipole analysis of the density
     ---------------------------------

     L   x y z        total         alpha         beta         nuclear
     -   - - -        -----         -----         ----         -------
     0   0 0 0     -0.000000     -5.000000     -5.000000     10.000000

     1   1 0 0      0.000000      0.000000      0.000000      0.000000
     1   0 1 0     -0.000000     -0.000000     -0.000000      0.000000
     1   0 0 1     -0.723610     -0.435122     -0.435122      0.146633

     2   2 0 0     -4.740681     -4.800488     -4.800488      4.860296
     2   1 1 0      0.000000      0.000000      0.000000      0.000000
     2   1 0 1     -0.000000     -0.000000     -0.000000     -0.000000
     2   0 2 0     -4.740681     -4.800488     -4.800488      4.860296
     2   0 1 1      0.000000      0.000000      0.000000     -0.000000

 Total times  cpu:       21.5s     wall:       23.0s
