         Total DFT energy =     -108.971232855955
@ Step       Energy      Delta E   Gmax     Grms     Xrms     Xmax   Walltime
@ ---- ---------------- -------- -------- -------- -------- -------- --------
@    0    -108.97123286  0.0D+00  0.10009  0.10009  0.00000  0.00000      0.6
         Total DFT energy =     -108.963153963126
         Total DFT energy =     -108.974096236582

 Vector   11  Occ=0.000000D+00  E= 1.429500D-01  Symmetry=a1g

 Vector   12  Occ=0.000000D+00  E= 1.635939D-01  Symmetry=eu

 Vector   13  Occ=0.000000D+00  E= 1.635939D-01  Symmetry=eu

 Vector   14  Occ=0.000000D+00  E= 2.185167D-01  Symmetry=a1g

 Vector   15  Occ=0.000000D+00  E= 2.767649D-01  Symmetry=eg

 Vector   16  Occ=0.000000D+00  E= 2.767649D-01  Symmetry=eg

 Vector   17  Occ=0.000000D+00  E= 3.295863D-01  Symmetry=a2u

 Vector   18  Occ=0.000000D+00  E= 6.997512D-01  Symmetry=a2u

@    1    -108.97409624 -2.9D-03  0.00941  0.00941  0.01473  0.02551      1.3
         Total DFT energy =     -108.974118645158

 Vector    1  Occ=2.000000D+00  E=-1.567948D+01  Symmetry=a1g

 Vector    2  Occ=2.000000D+00  E=-1.567531D+01  Symmetry=a2u

 Vector    3  Occ=2.000000D+00  E=-1.499002D+00  Symmetry=a1g

 Vector    4  Occ=2.000000D+00  E=-7.711973D-01  Symmetry=a2u

 Vector    5  Occ=2.000000D+00  E=-6.380624D-01  Symmetry=a1g

 Vector    6  Occ=2.000000D+00  E=-6.285140D-01  Symmetry=eu

 Vector    7  Occ=2.000000D+00  E=-6.285140D-01  Symmetry=eu

 Vector    8  Occ=0.000000D+00  E= 1.370940D-01  Symmetry=eg

 Vector    9  Occ=0.000000D+00  E= 1.370940D-01  Symmetry=eg

 Vector   10  Occ=0.000000D+00  E= 1.427622D-01  Symmetry=a2u

 Vector   11  Occ=0.000000D+00  E= 1.429988D-01  Symmetry=a1g

 Vector   12  Occ=0.000000D+00  E= 1.635091D-01  Symmetry=eu

 Vector   13  Occ=0.000000D+00  E= 1.635091D-01  Symmetry=eu

 Vector   14  Occ=0.000000D+00  E= 2.185702D-01  Symmetry=a1g

 Vector   15  Occ=0.000000D+00  E= 2.775582D-01  Symmetry=eg

 Vector   16  Occ=0.000000D+00  E= 2.775582D-01  Symmetry=eg

 Vector   17  Occ=0.000000D+00  E= 3.296399D-01  Symmetry=a2u

 Vector   18  Occ=0.000000D+00  E= 7.011268D-01  Symmetry=a2u

         Total DFT energy =   -108.974118645158
@    2    -108.97411865 -2.2D-05  0.00097  0.00097  0.00153  0.00265      1.8
         Total DFT energy =     -108.974118880611

 Vector    1  Occ=2.000000D+00  E=-1.567961D+01  Symmetry=a1g

 Vector    2  Occ=2.000000D+00  E=-1.567545D+01  Symmetry=a2u

 Vector    3  Occ=2.000000D+00  E=-1.498828D+00  Symmetry=a1g

 Vector    4  Occ=2.000000D+00  E=-7.712928D-01  Symmetry=a2u

 Vector    5  Occ=2.000000D+00  E=-6.380526D-01  Symmetry=a1g

 Vector    6  Occ=2.000000D+00  E=-6.284137D-01  Symmetry=eu

 Vector    7  Occ=2.000000D+00  E=-6.284137D-01  Symmetry=eu

 Vector    8  Occ=0.000000D+00  E= 1.370050D-01  Symmetry=eg

 Vector    9  Occ=0.000000D+00  E= 1.370050D-01  Symmetry=eg

 Vector   10  Occ=0.000000D+00  E= 1.427595D-01  Symmetry=a2u

 Vector   11  Occ=0.000000D+00  E= 1.429943D-01  Symmetry=a1g

 Vector   12  Occ=0.000000D+00  E= 1.635150D-01  Symmetry=eu

 Vector   13  Occ=0.000000D+00  E= 1.635150D-01  Symmetry=eu

 Vector   14  Occ=0.000000D+00  E= 2.185640D-01  Symmetry=a1g

 Vector   15  Occ=0.000000D+00  E= 2.774765D-01  Symmetry=eg

 Vector   16  Occ=0.000000D+00  E= 2.774765D-01  Symmetry=eg

 Vector   17  Occ=0.000000D+00  E= 3.296345D-01  Symmetry=a2u

 Vector   18  Occ=0.000000D+00  E= 7.009951D-01  Symmetry=a2u

         Total DFT energy =   -108.974118880611
@    3    -108.97411888 -2.4D-07  0.00000  0.00000  0.00014  0.00025      2.2
@    3    -108.97411888 -2.4D-07  0.00000  0.00000  0.00014  0.00025      2.2

 Output coordinates in angstroms (scale by  1.889725989 to convert to a.u.)

  No.       Tag          Charge          X              Y              Z
 ---- ---------------- ---------- -------------- -------------- --------------
    1 N                    7.0000     0.00000000     0.00000000    -0.53523152
    2 N                    7.0000     0.00000000     0.00000000     0.53523152

         Total DFT energy =     -108.974118884494

 Vector    1  Occ=2.000000D+00  E=-1.567958D+01

 Vector    2  Occ=2.000000D+00  E=-1.567542D+01

 Vector    3  Occ=2.000000D+00  E=-1.498809D+00

 Vector    4  Occ=2.000000D+00  E=-7.712858D-01

 Vector    5  Occ=2.000000D+00  E=-6.380403D-01

 Vector    6  Occ=2.000000D+00  E=-6.283984D-01

 Vector    7  Occ=2.000000D+00  E=-6.283984D-01

 Vector    8  Occ=0.000000D+00  E= 1.370114D-01

 Vector    9  Occ=0.000000D+00  E= 1.370114D-01

 Vector   10  Occ=0.000000D+00  E= 1.427589D-01

 Vector   11  Occ=0.000000D+00  E= 1.429945D-01

 Vector   12  Occ=0.000000D+00  E= 1.635166D-01

 Vector   13  Occ=0.000000D+00  E= 1.635166D-01

 Vector   14  Occ=0.000000D+00  E= 2.185651D-01

 Vector   15  Occ=0.000000D+00  E= 2.774827D-01

 Vector   16  Occ=0.000000D+00  E= 2.774827D-01

 Vector   17  Occ=0.000000D+00  E= 3.296349D-01

 Vector   18  Occ=0.000000D+00  E= 7.009985D-01

 Zero-Point correction to Energy  =    3.902 kcal/mol  (  0.006218 au)
 Thermal correction to Energy     =    5.383 kcal/mol  (  0.008578 au)
 Thermal correction to Enthalpy   =    5.975 kcal/mol  (  0.009522 au)
 Total Entropy                    =   45.638 cal/mol-K
   - Translational                =   35.908 cal/mol-K (mol. weight =  28.0061)
   - Rotational                   =    9.729 cal/mol-K (symmetry #  =        2)
   - Vibrational                  =    0.000 cal/mol-K
   - Translational                  =    2.979 cal/mol-K
   - Rotational                     =    1.986 cal/mol-K
   - Vibrational                    =    0.001 cal/mol-K
 P.Frequency        0.00        0.00        0.00        0.00        0.00     2730.86

 Normal Eigenvalue ||           Projected Infra Red Intensities
  Mode   [cm**-1]  || [atomic units] [(debye/angs)**2] [(KM/mol)] [arbitrary]
 ------ ---------- || -------------- ----------------- ---------- -----------
    1        0.000 ||    0.000000           0.000         0.000      10.457
    2        0.000 ||    0.000000           0.000         0.000       8.866
    3        0.000 ||    0.000000           0.000         0.000       7.757
    4        0.000 ||    0.000000           0.000         0.000       6.269
    5        0.000 ||    0.000000           0.000         0.000       0.152
    6     2730.857 ||    0.000000           0.000         0.000      26.499
 ----------------------------------------------------------------------------

         Total DFT energy =     -108.974118885076

                       DFT Final Molecular Orbital Analysis
                       ------------------------------------

 Vector    1  Occ=2.000000D+00  E=-1.567957D+01  Symmetry=a1g

 Vector    2  Occ=2.000000D+00  E=-1.567541D+01  Symmetry=a2u

 Vector    3  Occ=2.000000D+00  E=-1.498808D+00  Symmetry=a1g

 Vector    4  Occ=2.000000D+00  E=-7.712855D-01  Symmetry=a2u

 Vector    5  Occ=2.000000D+00  E=-6.380397D-01  Symmetry=a1g

 Vector    6  Occ=2.000000D+00  E=-6.283973D-01  Symmetry=eu

 Vector    7  Occ=2.000000D+00  E=-6.283973D-01  Symmetry=eu

 Vector    8  Occ=0.000000D+00  E= 1.370118D-01  Symmetry=eg

 Vector    9  Occ=0.000000D+00  E= 1.370118D-01  Symmetry=eg

 Vector   10  Occ=0.000000D+00  E= 1.427589D-01  Symmetry=a2u

 Vector   11  Occ=0.000000D+00  E= 1.429945D-01  Symmetry=a1g

 Vector   12  Occ=0.000000D+00  E= 1.635167D-01  Symmetry=eu

 Vector   13  Occ=0.000000D+00  E= 1.635167D-01  Symmetry=eu

 Vector   14  Occ=0.000000D+00  E= 2.185652D-01  Symmetry=a1g

 Vector   15  Occ=0.000000D+00  E= 2.774831D-01  Symmetry=eg

 Vector   16  Occ=0.000000D+00  E= 2.774831D-01  Symmetry=eg

 Vector   17  Occ=0.000000D+00  E= 3.296349D-01  Symmetry=a2u

 Vector   18  Occ=0.000000D+00  E= 7.009987D-01  Symmetry=a2u

     Multipole analysis of the density
     ---------------------------------

     L   x y z        total         alpha         beta         nuclear
     -   - - -        -----         -----         ----         -------
     0   0 0 0     -0.000000     -7.000000     -7.000000     14.000000

     1   1 0 0     -0.000000     -0.000000     -0.000000      0.000000
     1   0 1 0      0.000000      0.000000      0.000000      0.000000
     1   0 0 1      0.000000      0.000000      0.000000      0.000000

     2   2 0 0     -7.642789     -3.821395     -3.821395      0.000000
     2   1 1 0      0.000000      0.000000      0.000000      0.000000
     2   1 0 1     -0.000000     -0.000000     -0.000000      0.000000
     2   0 2 0     -7.642789     -3.821395     -3.821395      0.000000
     2   0 1 1      0.000000      0.000000      0.000000      0.000000

 Total times  cpu:        5.0s     wall:        5.4s
