         Total DFT energy =      -56.560924327483
@ Step       Energy      Delta E   Gmax     Grms     Xrms     Xmax   Walltime
@ ---- ---------------- -------- -------- -------- -------- -------- --------
@    0     -56.56092433  0.0D+00  0.04963  0.02835  0.00000  0.00000      0.9
         Total DFT energy =      -56.573397411914
         Total DFT energy =      -56.573456905679

 Vector   11  Occ=0.000000D+00  E= 1.536423D-01  Symmetry=e

 Vector   12  Occ=0.000000D+00  E= 1.993691D-01  Symmetry=a1

 Vector   13  Occ=0.000000D+00  E= 4.931490D-01  Symmetry=e

 Vector   14  Occ=0.000000D+00  E= 4.931490D-01  Symmetry=e

 Vector   15  Occ=0.000000D+00  E= 6.139581D-01  Symmetry=a1

@    1     -56.57345691 -1.3D-02  0.00745  0.00456  0.08385  0.16188      2.2
         Total DFT energy =      -56.573648108191

 Vector    1  Occ=2.000000D+00  E=-1.430128D+01  Symmetry=a1

 Vector    2  Occ=2.000000D+00  E=-8.587687D-01  Symmetry=a1

 Vector    3  Occ=2.000000D+00  E=-4.711981D-01  Symmetry=e

 Vector    4  Occ=2.000000D+00  E=-4.711981D-01  Symmetry=e

 Vector    5  Occ=2.000000D+00  E=-2.676902D-01  Symmetry=a1

 Vector    6  Occ=0.000000D+00  E= 9.638830D-03  Symmetry=a1

 Vector    7  Occ=0.000000D+00  E= 8.701449D-02  Symmetry=e

 Vector    8  Occ=0.000000D+00  E= 8.701449D-02  Symmetry=e

 Vector    9  Occ=0.000000D+00  E= 1.146797D-01  Symmetry=a1

 Vector   10  Occ=0.000000D+00  E= 1.499477D-01  Symmetry=e

 Vector   11  Occ=0.000000D+00  E= 1.499477D-01  Symmetry=e

 Vector   12  Occ=0.000000D+00  E= 1.963713D-01  Symmetry=a1

 Vector   13  Occ=0.000000D+00  E= 4.889654D-01  Symmetry=e

 Vector   14  Occ=0.000000D+00  E= 4.889654D-01  Symmetry=e

 Vector   15  Occ=0.000000D+00  E= 6.111250D-01  Symmetry=a1

         Total DFT energy =      -56.573665079898

 Vector    1  Occ=2.000000D+00  E=-1.430044D+01  Symmetry=a1

 Vector    2  Occ=2.000000D+00  E=-8.597961D-01  Symmetry=a1

 Vector    3  Occ=2.000000D+00  E=-4.720475D-01  Symmetry=e

 Vector    4  Occ=2.000000D+00  E=-4.720475D-01  Symmetry=e

 Vector    5  Occ=2.000000D+00  E=-2.676121D-01  Symmetry=a1

 Vector    6  Occ=0.000000D+00  E= 9.822280D-03  Symmetry=a1

 Vector    7  Occ=0.000000D+00  E= 8.699970D-02  Symmetry=e

 Vector    8  Occ=0.000000D+00  E= 8.699970D-02  Symmetry=e

 Vector    9  Occ=0.000000D+00  E= 1.148058D-01  Symmetry=a1

 Vector   10  Occ=0.000000D+00  E= 1.507867D-01  Symmetry=e

 Vector   11  Occ=0.000000D+00  E= 1.507867D-01  Symmetry=e

 Vector   12  Occ=0.000000D+00  E= 1.970455D-01  Symmetry=a1

 Vector   13  Occ=0.000000D+00  E= 4.899353D-01  Symmetry=e

 Vector   14  Occ=0.000000D+00  E= 4.899353D-01  Symmetry=e

 Vector   15  Occ=0.000000D+00  E= 6.118251D-01  Symmetry=a1

@    2     -56.57366508 -2.1D-04  0.00019  0.00008  0.00779  0.01400      3.5
         Total DFT energy =      -56.573665355221

 Vector    1  Occ=2.000000D+00  E=-1.430041D+01  Symmetry=a1

 Vector    2  Occ=2.000000D+00  E=-8.596887D-01  Symmetry=a1

 Vector    3  Occ=2.000000D+00  E=-4.721426D-01  Symmetry=e

 Vector    4  Occ=2.000000D+00  E=-4.721426D-01  Symmetry=e

 Vector    5  Occ=2.000000D+00  E=-2.674542D-01  Symmetry=a1

 Vector    6  Occ=0.000000D+00  E= 9.894724D-03  Symmetry=a1

 Vector    7  Occ=0.000000D+00  E= 8.696490D-02  Symmetry=e

 Vector    8  Occ=0.000000D+00  E= 8.696490D-02  Symmetry=e

 Vector    9  Occ=0.000000D+00  E= 1.147935D-01  Symmetry=a1

 Vector   10  Occ=0.000000D+00  E= 1.508304D-01  Symmetry=e

 Vector   11  Occ=0.000000D+00  E= 1.508304D-01  Symmetry=e

 Vector   12  Occ=0.000000D+00  E= 1.968579D-01  Symmetry=a1

 Vector   13  Occ=0.000000D+00  E= 4.900597D-01  Symmetry=e

 Vector   14  Occ=0.000000D+00  E= 4.900597D-01  Symmetry=e

 Vector   15  Occ=0.000000D+00  E= 6.114198D-01  Symmetry=a1

         Total DFT energy =    -56.573665355221
@    3     -56.57366536 -2.8D-07  0.00002  0.00001  0.00062  0.00150      4.1
@    3     -56.57366536 -2.8D-07  0.00002  0.00001  0.00062  0.00150      4.1

 Output coordinates in angstroms (scale by  1.889725989 to convert to a.u.)

  No.       Tag          Charge          X              Y              Z
 ---- ---------------- ---------- -------------- -------------- --------------
    1 N                    7.0000     0.00000000     0.00000000     0.10782189
    2 H                    1.0000     0.66982417     0.66982417    -0.25391542
    3 H                    1.0000     0.24517266    -0.91499683    -0.25391542
    4 H                    1.0000    -0.91499683     0.24517266    -0.25391542

         Total DFT energy =      -56.573665936276

 Vector    1  Occ=2.000000D+00  E=-1.430040D+01

 Vector    2  Occ=2.000000D+00  E=-8.596831D-01

 Vector    3  Occ=2.000000D+00  E=-4.721393D-01

 Vector    4  Occ=2.000000D+00  E=-4.721393D-01

 Vector    5  Occ=2.000000D+00  E=-2.674556D-01

 Vector    6  Occ=0.000000D+00  E= 9.896114D-03

 Vector    7  Occ=0.000000D+00  E= 8.696483D-02

 Vector    8  Occ=0.000000D+00  E= 8.696487D-02

 Vector    9  Occ=0.000000D+00  E= 1.147921D-01

 Vector   10  Occ=0.000000D+00  E= 1.508308D-01

 Vector   11  Occ=0.000000D+00  E= 1.508308D-01

 Vector   12  Occ=0.000000D+00  E= 1.968585D-01

 Vector   13  Occ=0.000000D+00  E= 4.900601D-01

 Vector   14  Occ=0.000000D+00  E= 4.900601D-01

 Vector   15  Occ=0.000000D+00  E= 6.114220D-01

 Zero-Point correction to Energy  =   21.762 kcal/mol  (  0.034680 au)
 Thermal correction to Energy     =   23.559 kcal/mol  (  0.037544 au)
 Thermal correction to Enthalpy   =   24.152 kcal/mol  (  0.038488 au)
 Total Entropy                    =   45.941 cal/mol-K
   - Translational                =   34.425 cal/mol-K (mol. weight =  17.0265)
   - Rotational                   =   11.434 cal/mol-K (symmetry #  =        3)
   - Vibrational                  =    0.082 cal/mol-K
   - Translational                  =    2.979 cal/mol-K
   - Rotational                     =    2.979 cal/mol-K
   - Vibrational                    =    0.381 cal/mol-K
 P.Frequency       -0.00       -0.00       -0.00       -0.00       -0.00       -0.00
 P.Frequency     1059.88     1734.15     1734.16     3480.31     3610.83     3610.83

 Normal Eigenvalue ||           Projected Infra Red Intensities
  Mode   [cm**-1]  || [atomic units] [(debye/angs)**2] [(KM/mol)] [arbitrary]
 ------ ---------- || -------------- ----------------- ---------- -----------
    1       -0.000 ||    0.083701           1.931        81.596      19.899
    2       -0.000 ||    0.000093           0.002         0.091       0.022
    3       -0.000 ||    0.000209           0.005         0.204       0.050
    4       -0.000 ||    0.070671           1.630        68.893      16.801
    5       -0.000 ||    0.000018           0.000         0.017       0.004
    6       -0.000 ||    0.013258           0.306        12.924       3.152
    7     1059.879 ||    0.258531           5.965       252.029      61.462
    8     1734.155 ||    0.036774           0.848        35.849       8.743
    9     1734.155 ||    0.036773           0.848        35.848       8.742
   10     3480.306 ||    0.003450           0.080         3.364       0.820
   11     3610.827 ||    0.000641           0.015         0.625       0.152
   12     3610.827 ||    0.000641           0.015         0.625       0.152
 ----------------------------------------------------------------------------

         Total DFT energy =      -56.183898701336

                       DFT Final Molecular Orbital Analysis
                       ------------------------------------

 Vector    1  Occ=2.000000D+00  E=-1.395128D+01  Symmetry=a1

 Vector    2  Occ=2.000000D+00  E=-7.464645D-01  Symmetry=a1

 Vector    3  Occ=2.000000D+00  E=-3.894022D-01  Symmetry=e

 Vector    4  Occ=2.000000D+00  E=-3.894022D-01  Symmetry=e

 Vector    5  Occ=2.000000D+00  E=-1.885259D-01  Symmetry=a1

 Vector    6  Occ=0.000000D+00  E= 3.973113D-03  Symmetry=a1

 Vector    7  Occ=0.000000D+00  E= 7.872420D-02  Symmetry=e

 Vector    8  Occ=0.000000D+00  E= 7.872420D-02  Symmetry=e

 Vector    9  Occ=0.000000D+00  E= 1.077705D-01  Symmetry=a1

 Vector   10  Occ=0.000000D+00  E= 1.444933D-01  Symmetry=e

 Vector   11  Occ=0.000000D+00  E= 1.444933D-01  Symmetry=e

 Vector   12  Occ=0.000000D+00  E= 1.890006D-01  Symmetry=a1

 Vector   13  Occ=0.000000D+00  E= 4.781623D-01  Symmetry=e

 Vector   14  Occ=0.000000D+00  E= 4.781623D-01  Symmetry=e

 Vector   15  Occ=0.000000D+00  E= 5.977577D-01  Symmetry=a1

     Multipole analysis of the density
     ---------------------------------

     L   x y z        total         alpha         beta         nuclear
     -   - - -        -----         -----         ----         -------
     0   0 0 0     -0.000000     -5.000000     -5.000000     10.000000

     1   1 0 0     -0.000000     -0.000000     -0.000000      0.000000
     1   0 1 0     -0.000000     -0.000000     -0.000000      0.000000
     1   0 0 1     -0.674604     -0.330695     -0.330695     -0.013215

     2   2 0 0     -4.888496     -4.847562     -4.847562      4.806628
     2   1 1 0     -0.000000     -0.000000     -0.000000      0.000000
     2   1 0 1      0.000000      0.000000      0.000000     -0.000000
     2   0 2 0     -4.888496     -4.847562     -4.847562      4.806628
     2   0 1 1      0.000000      0.000000      0.000000     -0.000000

 Total times  cpu:       27.9s     wall:       28.7s
