         Total DFT energy =      -56.545343046192
@ Step       Energy      Delta E   Gmax     Grms     Xrms     Xmax   Walltime
@ ---- ---------------- -------- -------- -------- -------- -------- --------
@    0     -56.54534305  0.0D+00  0.04761  0.02705  0.00000  0.00000      0.9
         Total DFT energy =      -56.556741920021
         Total DFT energy =      -56.556828989643

 Vector   11  Occ=0.000000D+00  E= 1.971740D-01  Symmetry=e

 Vector   12  Occ=0.000000D+00  E= 2.541492D-01  Symmetry=a1

 Vector   13  Occ=0.000000D+00  E= 8.449665D-01  Symmetry=e

 Vector   14  Occ=0.000000D+00  E= 8.449665D-01  Symmetry=e

 Vector   15  Occ=0.000000D+00  E= 8.854963D-01  Symmetry=a1

@    1     -56.55682899 -1.1D-02  0.00661  0.00397  0.08080  0.15610      2.1
         Total DFT energy =      -56.556974238221

 Vector    1  Occ=2.000000D+00  E=-1.432597D+01  Symmetry=a1

 Vector    2  Occ=2.000000D+00  E=-8.578950D-01  Symmetry=a1

 Vector    3  Occ=2.000000D+00  E=-4.693652D-01  Symmetry=e

 Vector    4  Occ=2.000000D+00  E=-4.693652D-01  Symmetry=e

 Vector    5  Occ=2.000000D+00  E=-2.680893D-01  Symmetry=a1

 Vector    6  Occ=0.000000D+00  E= 1.649533D-02  Symmetry=a1

 Vector    7  Occ=0.000000D+00  E= 8.984043D-02  Symmetry=e

 Vector    8  Occ=0.000000D+00  E= 8.984043D-02  Symmetry=e

 Vector    9  Occ=0.000000D+00  E= 1.189393D-01  Symmetry=a1

 Vector   10  Occ=0.000000D+00  E= 1.927650D-01  Symmetry=e

 Vector   11  Occ=0.000000D+00  E= 1.927650D-01  Symmetry=e

 Vector   12  Occ=0.000000D+00  E= 2.509188D-01  Symmetry=a1

 Vector   13  Occ=0.000000D+00  E= 8.481693D-01  Symmetry=e

 Vector   14  Occ=0.000000D+00  E= 8.481693D-01  Symmetry=e

 Vector   15  Occ=0.000000D+00  E= 8.858194D-01  Symmetry=a1

         Total DFT energy =      -56.556986299151

 Vector    1  Occ=2.000000D+00  E=-1.432525D+01  Symmetry=a1

 Vector    2  Occ=2.000000D+00  E=-8.587368D-01  Symmetry=a1

 Vector    3  Occ=2.000000D+00  E=-4.701083D-01  Symmetry=e

 Vector    4  Occ=2.000000D+00  E=-4.701083D-01  Symmetry=e

 Vector    5  Occ=2.000000D+00  E=-2.679823D-01  Symmetry=a1

 Vector    6  Occ=0.000000D+00  E= 1.673780D-02  Symmetry=a1

 Vector    7  Occ=0.000000D+00  E= 8.984387D-02  Symmetry=e

 Vector    8  Occ=0.000000D+00  E= 8.984387D-02  Symmetry=e

 Vector    9  Occ=0.000000D+00  E= 1.189806D-01  Symmetry=a1

 Vector   10  Occ=0.000000D+00  E= 1.937436D-01  Symmetry=e

 Vector   11  Occ=0.000000D+00  E= 1.937436D-01  Symmetry=e

 Vector   12  Occ=0.000000D+00  E= 2.516332D-01  Symmetry=a1

 Vector   13  Occ=0.000000D+00  E= 8.474883D-01  Symmetry=e

 Vector   14  Occ=0.000000D+00  E= 8.474883D-01  Symmetry=e

 Vector   15  Occ=0.000000D+00  E= 8.857549D-01  Symmetry=a1

@    2     -56.55698630 -1.6D-04  0.00012  0.00006  0.00670  0.01162      3.2
         Total DFT energy =      -56.556986456089

 Vector    1  Occ=2.000000D+00  E=-1.432524D+01  Symmetry=a1

 Vector    2  Occ=2.000000D+00  E=-8.586554D-01  Symmetry=a1

 Vector    3  Occ=2.000000D+00  E=-4.701736D-01  Symmetry=e

 Vector    4  Occ=2.000000D+00  E=-4.701736D-01  Symmetry=e

 Vector    5  Occ=2.000000D+00  E=-2.678673D-01  Symmetry=a1

 Vector    6  Occ=0.000000D+00  E= 1.677718D-02  Symmetry=a1

 Vector    7  Occ=0.000000D+00  E= 8.982266D-02  Symmetry=e

 Vector    8  Occ=0.000000D+00  E= 8.982266D-02  Symmetry=e

 Vector    9  Occ=0.000000D+00  E= 1.189721D-01  Symmetry=a1

 Vector   10  Occ=0.000000D+00  E= 1.937870D-01  Symmetry=e

 Vector   11  Occ=0.000000D+00  E= 1.937870D-01  Symmetry=e

 Vector   12  Occ=0.000000D+00  E= 2.514657D-01  Symmetry=a1

 Vector   13  Occ=0.000000D+00  E= 8.474840D-01  Symmetry=e

 Vector   14  Occ=0.000000D+00  E= 8.474840D-01  Symmetry=e

 Vector   15  Occ=0.000000D+00  E= 8.856737D-01  Symmetry=a1

         Total DFT energy =    -56.556986456089
@    3     -56.55698646 -1.6D-07  0.00001  0.00000  0.00045  0.00107      3.8
@    3     -56.55698646 -1.6D-07  0.00001  0.00000  0.00045  0.00107      3.8

 Output coordinates in angstroms (scale by  1.889725989 to convert to a.u.)

  No.       Tag          Charge          X              Y              Z
 ---- ---------------- ---------- -------------- -------------- --------------
    1 N                    7.0000     0.00000000     0.00000000     0.11275581
    2 H                    1.0000     0.67107254     0.67107254    -0.25556006
    3 H                    1.0000     0.24562960    -0.91670213    -0.25556006
    4 H                    1.0000    -0.91670213     0.24562960    -0.25556006

         Total DFT energy =      -56.556986733750

 Vector    1  Occ=2.000000D+00  E=-1.432523D+01

 Vector    2  Occ=2.000000D+00  E=-8.586512D-01

 Vector    3  Occ=2.000000D+00  E=-4.701707D-01

 Vector    4  Occ=2.000000D+00  E=-4.701707D-01

 Vector    5  Occ=2.000000D+00  E=-2.678670D-01

 Vector    6  Occ=0.000000D+00  E= 1.677824D-02

 Vector    7  Occ=0.000000D+00  E= 8.982270D-02

 Vector    8  Occ=0.000000D+00  E= 8.982272D-02

 Vector    9  Occ=0.000000D+00  E= 1.189713D-01

 Vector   10  Occ=0.000000D+00  E= 1.937878D-01

 Vector   11  Occ=0.000000D+00  E= 1.937878D-01

 Vector   12  Occ=0.000000D+00  E= 2.514669D-01

 Vector   13  Occ=0.000000D+00  E= 8.474852D-01

 Vector   14  Occ=0.000000D+00  E= 8.474852D-01

 Vector   15  Occ=0.000000D+00  E= 8.856758D-01

 Zero-Point correction to Energy  =   21.653 kcal/mol  (  0.034506 au)
 Thermal correction to Energy     =   23.450 kcal/mol  (  0.037370 au)
 Thermal correction to Enthalpy   =   24.042 kcal/mol  (  0.038314 au)
 Total Entropy                    =   45.965 cal/mol-K
   - Translational                =   34.425 cal/mol-K (mol. weight =  17.0265)
   - Rotational                   =   11.457 cal/mol-K (symmetry #  =        3)
   - Vibrational                  =    0.082 cal/mol-K
   - Translational                  =    2.979 cal/mol-K
   - Rotational                     =    2.979 cal/mol-K
   - Vibrational                    =    0.382 cal/mol-K
 P.Frequency       -0.00        0.00        0.00        0.00        0.00        0.00
 P.Frequency     1063.48     1715.48     1715.49     3461.54     3598.76     3598.76

 Normal Eigenvalue ||           Projected Infra Red Intensities
  Mode   [cm**-1]  || [atomic units] [(debye/angs)**2] [(KM/mol)] [arbitrary]
 ------ ---------- || -------------- ----------------- ---------- -----------
    1       -0.000 ||    0.085184           1.965        83.041      20.587
    2        0.000 ||    0.000217           0.005         0.212       0.053
    3        0.000 ||    0.013448           0.310        13.110       3.250
    4        0.000 ||    0.000098           0.002         0.096       0.024
    5        0.000 ||    0.071971           1.660        70.161      17.394
    6        0.000 ||    0.000018           0.000         0.018       0.004
    7     1063.476 ||    0.255108           5.886       248.692      61.654
    8     1715.485 ||    0.031563           0.728        30.769       7.628
    9     1715.485 ||    0.031563           0.728        30.769       7.628
   10     3461.539 ||    0.001967           0.045         1.917       0.475
   11     3598.760 ||    0.002695           0.062         2.627       0.651
   12     3598.761 ||    0.002695           0.062         2.627       0.651
 ----------------------------------------------------------------------------

         Total DFT energy =      -56.188851284455

                       DFT Final Molecular Orbital Analysis
                       ------------------------------------

 Vector    1  Occ=2.000000D+00  E=-1.555345D+01  Symmetry=a1

 Vector    2  Occ=2.000000D+00  E=-1.141327D+00  Symmetry=a1

 Vector    3  Occ=2.000000D+00  E=-6.318536D-01  Symmetry=e

 Vector    4  Occ=2.000000D+00  E=-6.318536D-01  Symmetry=e

 Vector    5  Occ=2.000000D+00  E=-4.243973D-01  Symmetry=a1

 Vector    6  Occ=0.000000D+00  E= 1.147281D-01  Symmetry=a1

 Vector    7  Occ=0.000000D+00  E= 1.699781D-01  Symmetry=e

 Vector    8  Occ=0.000000D+00  E= 1.699781D-01  Symmetry=e

 Vector    9  Occ=0.000000D+00  E= 2.039826D-01  Symmetry=a1

 Vector   10  Occ=0.000000D+00  E= 3.496083D-01  Symmetry=e

 Vector   11  Occ=0.000000D+00  E= 3.496083D-01  Symmetry=e

 Vector   12  Occ=0.000000D+00  E= 3.929071D-01  Symmetry=a1

 Vector   13  Occ=0.000000D+00  E= 1.081926D+00  Symmetry=e

 Vector   14  Occ=0.000000D+00  E= 1.081926D+00  Symmetry=e

 Vector   15  Occ=0.000000D+00  E= 1.148263D+00  Symmetry=a1

     Multipole analysis of the density
     ---------------------------------

     L   x y z        total         alpha         beta         nuclear
     -   - - -        -----         -----         ----         -------
     0   0 0 0     -0.000000     -5.000000     -5.000000     10.000000

     1   1 0 0      0.000000     -0.000000     -0.000000      0.000000
     1   0 1 0      0.000000      0.000000      0.000000      0.000000
     1   0 0 1     -0.743357     -0.393042     -0.393042      0.042728

     2   2 0 0     -4.583720     -4.704141     -4.704141      4.824562
     2   1 1 0      0.000000      0.000000      0.000000      0.000000
     2   1 0 1     -0.000000     -0.000000     -0.000000      0.000000
     2   0 2 0     -4.583720     -4.704141     -4.704141      4.824562
     2   0 1 1     -0.000000     -0.000000     -0.000000      0.000000

 Total times  cpu:       18.1s     wall:       18.9s
