         Total DFT energy =     -108.901078400888
@ Step       Energy      Delta E   Gmax     Grms     Xrms     Xmax   Walltime
@ ---- ---------------- -------- -------- -------- -------- -------- --------
@    0    -108.90107840  0.0D+00  0.11694  0.11694  0.00000  0.00000      0.3
         Total DFT energy =     -108.900073000557
         Total DFT energy =     -108.905533800536
@    1    -108.90553380 -4.5D-03  0.00711  0.00711  0.02498  0.04326      0.7
         Total DFT energy =     -108.905554145974

 Vector    8  Occ=0.000000D+00  E=-4.727172D-02  Symmetry=eg

 Vector    9  Occ=0.000000D+00  E=-4.727172D-02  Symmetry=eg

 Vector   10  Occ=0.000000D+00  E= 3.880932D-01  Symmetry=a2u

 Vector   11  Occ=0.000000D+00  E= 6.044578D-01  Symmetry=eu

 Vector   12  Occ=0.000000D+00  E= 6.044578D-01  Symmetry=eu

 Vector   13  Occ=0.000000D+00  E= 6.141048D-01  Symmetry=a1g

 Vector   14  Occ=0.000000D+00  E= 7.230612D-01  Symmetry=eg

 Vector   15  Occ=0.000000D+00  E= 7.230612D-01  Symmetry=eg

 Vector   16  Occ=0.000000D+00  E= 7.251404D-01  Symmetry=a1g

 Vector   17  Occ=0.000000D+00  E= 7.696697D-01  Symmetry=a2u

         Total DFT energy =     -108.905554604591

 Vector    1  Occ=2.000000D+00  E=-1.409469D+01  Symmetry=a1g

 Vector    2  Occ=2.000000D+00  E=-1.409411D+01  Symmetry=a2u

 Vector    3  Occ=2.000000D+00  E=-1.009931D+00  Symmetry=a1g

 Vector    4  Occ=2.000000D+00  E=-4.488520D-01  Symmetry=a2u

 Vector    5  Occ=2.000000D+00  E=-3.755606D-01  Symmetry=eu

 Vector    6  Occ=2.000000D+00  E=-3.755606D-01  Symmetry=eu

 Vector    7  Occ=2.000000D+00  E=-3.196555D-01  Symmetry=a1g

 Vector    8  Occ=0.000000D+00  E=-4.707376D-02  Symmetry=eg

 Vector    9  Occ=0.000000D+00  E=-4.707376D-02  Symmetry=eg

 Vector   10  Occ=0.000000D+00  E= 3.884146D-01  Symmetry=a2u

 Vector   11  Occ=0.000000D+00  E= 6.044000D-01  Symmetry=eu

 Vector   12  Occ=0.000000D+00  E= 6.044000D-01  Symmetry=eu

 Vector   13  Occ=0.000000D+00  E= 6.139235D-01  Symmetry=a1g

 Vector   14  Occ=0.000000D+00  E= 7.231325D-01  Symmetry=eg

 Vector   15  Occ=0.000000D+00  E= 7.231325D-01  Symmetry=eg

 Vector   16  Occ=0.000000D+00  E= 7.251346D-01  Symmetry=a1g

 Vector   17  Occ=0.000000D+00  E= 7.702579D-01  Symmetry=a2u

@    2    -108.90555460 -2.1D-05  0.00004  0.00004  0.00169  0.00293      1.0
         Total DFT energy =     -108.905554607311

 Vector    1  Occ=2.000000D+00  E=-1.409469D+01  Symmetry=a1g

 Vector    2  Occ=2.000000D+00  E=-1.409411D+01  Symmetry=a2u

 Vector    3  Occ=2.000000D+00  E=-1.009922D+00  Symmetry=a1g

 Vector    4  Occ=2.000000D+00  E=-4.488568D-01  Symmetry=a2u

 Vector    5  Occ=2.000000D+00  E=-3.755568D-01  Symmetry=eu

 Vector    6  Occ=2.000000D+00  E=-3.755568D-01  Symmetry=eu

 Vector    7  Occ=2.000000D+00  E=-3.196558D-01  Symmetry=a1g

 Vector    8  Occ=0.000000D+00  E=-4.708082D-02  Symmetry=eg

 Vector    9  Occ=0.000000D+00  E=-4.708082D-02  Symmetry=eg

 Vector   10  Occ=0.000000D+00  E= 3.884037D-01  Symmetry=a2u

 Vector   11  Occ=0.000000D+00  E= 6.044016D-01  Symmetry=eu

 Vector   12  Occ=0.000000D+00  E= 6.044016D-01  Symmetry=eu

 Vector   13  Occ=0.000000D+00  E= 6.139292D-01  Symmetry=a1g

 Vector   14  Occ=0.000000D+00  E= 7.231297D-01  Symmetry=eg

 Vector   15  Occ=0.000000D+00  E= 7.231297D-01  Symmetry=eg

 Vector   16  Occ=0.000000D+00  E= 7.251344D-01  Symmetry=a1g

 Vector   17  Occ=0.000000D+00  E= 7.702378D-01  Symmetry=a2u

         Total DFT energy =   -108.905554607311
@    3    -108.90555461 -2.7D-09  0.00000  0.00000  0.00001  0.00001      1.2
@    3    -108.90555461 -2.7D-09  0.00000  0.00000  0.00001  0.00001      1.2

 Output coordinates in angstroms (scale by  1.889725989 to convert to a.u.)

  No.       Tag          Charge          X              Y              Z
 ---- ---------------- ---------- -------------- -------------- --------------
    1 N                    7.0000     0.00000000     0.00000000    -0.57135083
    2 N                    7.0000     0.00000000     0.00000000     0.57135083

         Total DFT energy =     -108.905554578930

 Vector    1  Occ=2.000000D+00  E=-1.409469D+01

 Vector    2  Occ=2.000000D+00  E=-1.409411D+01

 Vector    3  Occ=2.000000D+00  E=-1.009921D+00

 Vector    4  Occ=2.000000D+00  E=-4.488560D-01

 Vector    5  Occ=2.000000D+00  E=-3.755559D-01

 Vector    6  Occ=2.000000D+00  E=-3.755559D-01

 Vector    7  Occ=2.000000D+00  E=-3.196550D-01

 Vector    8  Occ=0.000000D+00  E=-4.707992D-02

 Vector    9  Occ=0.000000D+00  E=-4.707992D-02

 Vector   10  Occ=0.000000D+00  E= 3.884040D-01

 Vector   11  Occ=0.000000D+00  E= 6.044022D-01

 Vector   12  Occ=0.000000D+00  E= 6.044022D-01

 Vector   13  Occ=0.000000D+00  E= 6.139295D-01

 Vector   14  Occ=0.000000D+00  E= 7.231304D-01

 Vector   15  Occ=0.000000D+00  E= 7.231304D-01

 Vector   16  Occ=0.000000D+00  E= 7.251351D-01

 Vector   17  Occ=0.000000D+00  E= 7.702384D-01

 Zero-Point correction to Energy  =    3.085 kcal/mol  (  0.004916 au)
 Thermal correction to Energy     =    4.566 kcal/mol  (  0.007276 au)
 Thermal correction to Enthalpy   =    5.158 kcal/mol  (  0.008220 au)
 Total Entropy                    =   45.898 cal/mol-K
   - Translational                =   35.908 cal/mol-K (mol. weight =  28.0061)
   - Rotational                   =    9.989 cal/mol-K (symmetry #  =        2)
   - Vibrational                  =    0.001 cal/mol-K
   - Translational                  =    2.979 cal/mol-K
   - Rotational                     =    1.986 cal/mol-K
   - Vibrational                    =    0.006 cal/mol-K
 P.Frequency       -0.00        0.00        0.00        0.00        0.00     2159.09

 Normal Eigenvalue ||           Projected Infra Red Intensities
  Mode   [cm**-1]  || [atomic units] [(debye/angs)**2] [(KM/mol)] [arbitrary]
 ------ ---------- || -------------- ----------------- ---------- -----------
    1       -0.000 ||    0.000000           0.000         0.000      50.487
    2        0.000 ||    0.000000           0.000         0.000       0.200
    3        0.000 ||    0.000000           0.000         0.000       2.988
    4        0.000 ||    0.000000           0.000         0.000       1.299
    5        0.000 ||    0.000000           0.000         0.000       3.072
    6     2159.090 ||    0.000000           0.000         0.000       1.954
 ----------------------------------------------------------------------------

         Total DFT energy =     -108.990421831110

                       DFT Final Molecular Orbital Analysis
                       ------------------------------------

 Vector    1  Occ=2.000000D+00  E=-1.407640D+01  Symmetry=a1g

 Vector    2  Occ=2.000000D+00  E=-1.407558D+01  Symmetry=a2u

 Vector    3  Occ=2.000000D+00  E=-9.807631D-01  Symmetry=a1g

 Vector    4  Occ=2.000000D+00  E=-4.719896D-01  Symmetry=a2u

 Vector    5  Occ=2.000000D+00  E=-3.799446D-01  Symmetry=eu

 Vector    6  Occ=2.000000D+00  E=-3.799446D-01  Symmetry=eu

 Vector    7  Occ=2.000000D+00  E=-3.446600D-01  Symmetry=a1g

 Vector    8  Occ=0.000000D+00  E=-6.018170D-02  Symmetry=eg

 Vector    9  Occ=0.000000D+00  E=-6.018170D-02  Symmetry=eg

 Vector   10  Occ=0.000000D+00  E= 5.644389D-02  Symmetry=a1g

 Vector   11  Occ=0.000000D+00  E= 7.402136D-02  Symmetry=a2u

 Vector   12  Occ=0.000000D+00  E= 8.521994D-02  Symmetry=eu

 Vector   13  Occ=0.000000D+00  E= 8.521994D-02  Symmetry=eu

 Vector   14  Occ=0.000000D+00  E= 1.359505D-01  Symmetry=a1g

 Vector   15  Occ=0.000000D+00  E= 1.613496D-01  Symmetry=eg

 Vector   16  Occ=0.000000D+00  E= 1.613496D-01  Symmetry=eg

 Vector   17  Occ=0.000000D+00  E= 2.513143D-01  Symmetry=a2u

 Vector   18  Occ=0.000000D+00  E= 4.580434D-01  Symmetry=a2u

 Vector   19  Occ=0.000000D+00  E= 6.676396D-01  Symmetry=a1g

     Multipole analysis of the density
     ---------------------------------

     L   x y z        total         alpha         beta         nuclear
     -   - - -        -----         -----         ----         -------
     0   0 0 0     -0.000000     -7.000000     -7.000000     14.000000

     1   1 0 0     -0.000000     -0.000000     -0.000000      0.000000
     1   0 1 0     -0.000000     -0.000000     -0.000000      0.000000
     1   0 0 1      0.000000      0.000000      0.000000      0.000000

     2   2 0 0     -7.927918     -3.963959     -3.963959      0.000000
     2   1 1 0      0.000000      0.000000      0.000000      0.000000
     2   1 0 1     -0.000000     -0.000000     -0.000000      0.000000
     2   0 2 0     -7.927918     -3.963959     -3.963959      0.000000
     2   0 1 1     -0.000000     -0.000000     -0.000000      0.000000

 Total times  cpu:        4.5s     wall:        5.0s
