         Total DFT energy =       -1.126733967993

 Vector    1  Occ=2.000000D+00  E=-5.953926D-01  Symmetry=a1g

 Vector    2  Occ=0.000000D+00  E= 2.380983D-01  Symmetry=a2u

 Vector    3  Occ=0.000000D+00  E= 7.753988D-01  Symmetry=a1g

 Vector    4  Occ=0.000000D+00  E= 1.402566D+00  Symmetry=a2u

@ Step       Energy      Delta E   Gmax     Grms     Xrms     Xmax   Walltime
@ ---- ---------------- -------- -------- -------- -------- -------- --------
@    0      -1.12673397  0.0D+00  0.00858  0.00858  0.00000  0.00000      0.1
         Total DFT energy =       -1.126808102615

 Vector    1  Occ=2.000000D+00  E=-6.004722D-01  Symmetry=a1g

 Vector    2  Occ=0.000000D+00  E= 2.425227D-01  Symmetry=a2u

 Vector    3  Occ=0.000000D+00  E= 7.674294D-01  Symmetry=a1g

 Vector    4  Occ=0.000000D+00  E= 1.424917D+00  Symmetry=a2u

         Total DFT energy =       -1.126827828898

 Vector    1  Occ=2.000000D+00  E=-5.988881D-01  Symmetry=a1g

 Vector    2  Occ=0.000000D+00  E= 2.411559D-01  Symmetry=a2u

 Vector    3  Occ=0.000000D+00  E= 7.698881D-01  Symmetry=a1g

 Vector    4  Occ=0.000000D+00  E= 1.417883D+00  Symmetry=a2u

@    1      -1.12682783 -9.4D-05  0.00001  0.00001  0.00625  0.01082      0.2
         Total DFT energy =       -1.126827829022

 Vector    1  Occ=2.000000D+00  E=-5.988839D-01  Symmetry=a1g

 Vector    2  Occ=0.000000D+00  E= 2.411523D-01  Symmetry=a2u

 Vector    3  Occ=0.000000D+00  E= 7.698946D-01  Symmetry=a1g

 Vector    4  Occ=0.000000D+00  E= 1.417865D+00  Symmetry=a2u

         Total DFT energy =     -1.126827829022
@    2      -1.12682783 -1.2D-10  0.00000  0.00000  0.00001  0.00001      0.3
@    2      -1.12682783 -1.2D-10  0.00000  0.00000  0.00001  0.00001      0.3

 Output coordinates in angstroms (scale by  1.889725989 to convert to a.u.)

  No.       Tag          Charge          X              Y              Z
 ---- ---------------- ---------- -------------- -------------- --------------
    1 H                    1.0000     0.00000000     0.00000000    -0.36498014
    2 H                    1.0000     0.00000000     0.00000000     0.36498014

         Total DFT energy =       -1.126827829023

 Vector    1  Occ=2.000000D+00  E=-5.988839D-01

 Vector    2  Occ=0.000000D+00  E= 2.411523D-01

 Vector    3  Occ=0.000000D+00  E= 7.698946D-01

 Vector    4  Occ=0.000000D+00  E= 1.417865D+00

 Zero-Point correction to Energy  =    6.639 kcal/mol  (  0.010580 au)
 Thermal correction to Energy     =    8.119 kcal/mol  (  0.012939 au)
 Thermal correction to Enthalpy   =    8.712 kcal/mol  (  0.013883 au)
 Total Entropy                    =   31.049 cal/mol-K
   - Translational                =   28.068 cal/mol-K (mol. weight =   2.0156)
   - Rotational                   =    2.982 cal/mol-K (symmetry #  =        2)
   - Vibrational                  =    0.000 cal/mol-K
   - Translational                  =    2.979 cal/mol-K
   - Rotational                     =    1.986 cal/mol-K
   - Vibrational                    =    0.000 cal/mol-K
 P.Frequency        0.00        0.00        0.00        0.00        0.00     4646.17

 Normal Eigenvalue ||           Projected Infra Red Intensities
  Mode   [cm**-1]  || [atomic units] [(debye/angs)**2] [(KM/mol)] [arbitrary]
 ------ ---------- || -------------- ----------------- ---------- -----------
    1        0.000 ||    0.000000           0.000         0.000       7.683
    2        0.000 ||    0.000000           0.000         0.000       7.627
    3        0.000 ||    0.000000           0.000         0.000      12.782
    4        0.000 ||    0.000000           0.000         0.000      12.782
    5        0.000 ||    0.000000           0.000         0.000      18.974
    6     4646.172 ||    0.000000           0.000         0.000       0.152
 ----------------------------------------------------------------------------

         Total DFT energy =       -1.176535824520

                       DFT Final Molecular Orbital Analysis
                       ------------------------------------

 Vector    1  Occ=2.000000D+00  E=-4.394095D-01  Symmetry=a1g

 Vector    2  Occ=0.000000D+00  E= 6.132376D-02  Symmetry=a2u

 Vector    3  Occ=0.000000D+00  E= 1.955050D-01  Symmetry=a1g

 Vector    4  Occ=0.000000D+00  E= 4.801996D-01  Symmetry=a2u

 Vector    5  Occ=0.000000D+00  E= 2.091895D+00  Symmetry=a1g

 Vector    6  Occ=0.000000D+00  E= 2.400942D+00  Symmetry=a2u

     Multipole analysis of the density
     ---------------------------------

     L   x y z        total         alpha         beta         nuclear
     -   - - -        -----         -----         ----         -------
     0   0 0 0     -0.000000     -1.000000     -1.000000      2.000000

     1   1 0 0      0.000000      0.000000      0.000000      0.000000
     1   0 1 0      0.000000      0.000000      0.000000      0.000000
     1   0 0 1     -0.000000     -0.000000     -0.000000      0.000000

     2   2 0 0     -1.523291     -0.761645     -0.761645      0.000000
     2   1 1 0      0.000000      0.000000      0.000000      0.000000
     2   1 0 1      0.000000      0.000000      0.000000      0.000000
     2   0 2 0     -1.523291     -0.761645     -0.761645      0.000000
     2   0 1 1      0.000000      0.000000      0.000000      0.000000

 Total times  cpu:        0.5s     wall:        0.7s
