         Total DFT energy =       -1.163105035689

 Vector    1  Occ=2.000000D+00  E=-3.840558D-01  Symmetry=a1g

 Vector    2  Occ=0.000000D+00  E= 4.377603D-02  Symmetry=a2u

 Vector    3  Occ=0.000000D+00  E= 1.822638D-01  Symmetry=a1g

 Vector    4  Occ=0.000000D+00  E= 4.439499D-01  Symmetry=a2u

 Vector    5  Occ=0.000000D+00  E= 2.055862D+00  Symmetry=a1g

 Vector    6  Occ=0.000000D+00  E= 2.327557D+00  Symmetry=a2u

@ Step       Energy      Delta E   Gmax     Grms     Xrms     Xmax   Walltime
@ ---- ---------------- -------- -------- -------- -------- -------- --------
@    0      -1.16310504  0.0D+00  0.00613  0.00613  0.00000  0.00000      0.2
         Total DFT energy =       -1.163151587898

 Vector    1  Occ=2.000000D+00  E=-3.819994D-01  Symmetry=a1g

 Vector    2  Occ=0.000000D+00  E= 4.117270D-02  Symmetry=a2u

 Vector    3  Occ=0.000000D+00  E= 1.829303D-01  Symmetry=a1g

 Vector    4  Occ=0.000000D+00  E= 4.390860D-01  Symmetry=a2u

 Vector    5  Occ=0.000000D+00  E= 2.070879D+00  Symmetry=a1g

 Vector    6  Occ=0.000000D+00  E= 2.313802D+00  Symmetry=a2u

         Total DFT energy =       -1.163156659120

 Vector    1  Occ=2.000000D+00  E=-3.824975D-01  Symmetry=a1g

 Vector    2  Occ=0.000000D+00  E= 4.180947D-02  Symmetry=a2u

 Vector    3  Occ=0.000000D+00  E= 1.827675D-01  Symmetry=a1g

 Vector    4  Occ=0.000000D+00  E= 4.402632D-01  Symmetry=a2u

 Vector    5  Occ=0.000000D+00  E= 2.067247D+00  Symmetry=a1g

 Vector    6  Occ=0.000000D+00  E= 2.317090D+00  Symmetry=a2u

@    1      -1.16315666 -5.2D-05  0.00002  0.00002  0.00489  0.00847      0.5
         Total DFT energy =       -1.163156661047

 Vector    1  Occ=2.000000D+00  E=-3.824927D-01  Symmetry=a1g

 Vector    2  Occ=0.000000D+00  E= 4.180239D-02  Symmetry=a2u

 Vector    3  Occ=0.000000D+00  E= 1.827689D-01  Symmetry=a1g

 Vector    4  Occ=0.000000D+00  E= 4.402502D-01  Symmetry=a2u

 Vector    5  Occ=0.000000D+00  E= 2.067285D+00  Symmetry=a1g

 Vector    6  Occ=0.000000D+00  E= 2.317054D+00  Symmetry=a2u

         Total DFT energy =     -1.163156661047
@    2      -1.16315666 -1.9D-09  0.00000  0.00000  0.00002  0.00003      0.6
@    2      -1.16315666 -1.9D-09  0.00000  0.00000  0.00002  0.00003      0.6

 Output coordinates in angstroms (scale by  1.889725989 to convert to a.u.)

  No.       Tag          Charge          X              Y              Z
 ---- ---------------- ---------- -------------- -------------- --------------
    1 H                    1.0000     0.00000000     0.00000000    -0.37519966
    2 H                    1.0000     0.00000000     0.00000000     0.37519966

         Total DFT energy =       -1.163156644927

 Vector    1  Occ=2.000000D+00  E=-3.824921D-01

 Vector    2  Occ=0.000000D+00  E= 4.180268D-02

 Vector    3  Occ=0.000000D+00  E= 1.827691D-01

 Vector    4  Occ=0.000000D+00  E= 4.402505D-01

 Vector    5  Occ=0.000000D+00  E= 2.067286D+00

 Vector    6  Occ=0.000000D+00  E= 2.317055D+00

 Zero-Point correction to Energy  =    6.122 kcal/mol  (  0.009756 au)
 Thermal correction to Energy     =    7.603 kcal/mol  (  0.012116 au)
 Thermal correction to Enthalpy   =    8.195 kcal/mol  (  0.013059 au)
 Total Entropy                    =   31.159 cal/mol-K
   - Translational                =   28.068 cal/mol-K (mol. weight =   2.0156)
   - Rotational                   =    3.091 cal/mol-K (symmetry #  =        2)
   - Vibrational                  =    0.000 cal/mol-K
   - Translational                  =    2.979 cal/mol-K
   - Rotational                     =    1.986 cal/mol-K
   - Vibrational                    =    0.000 cal/mol-K
 P.Frequency        0.00        0.00        0.00        0.00        0.00     4284.52

 Normal Eigenvalue ||           Projected Infra Red Intensities
  Mode   [cm**-1]  || [atomic units] [(debye/angs)**2] [(KM/mol)] [arbitrary]
 ------ ---------- || -------------- ----------------- ---------- -----------
    1        0.000 ||    0.000000           0.000         0.000       0.314
    2        0.000 ||    0.000000           0.000         0.000       0.323
    3        0.000 ||    0.000000           0.000         0.000      18.535
    4        0.000 ||    0.000000           0.000         0.000      24.219
    5        0.000 ||    0.000000           0.000         0.000       0.955
    6     4284.520 ||    0.000000           0.000         0.000      15.654
 ----------------------------------------------------------------------------

         Total DFT energy =       -1.176585358360

                       DFT Final Molecular Orbital Analysis
                       ------------------------------------

 Vector    1  Occ=2.000000D+00  E=-4.352359D-01  Symmetry=a1g

 Vector    2  Occ=0.000000D+00  E= 5.720273D-02  Symmetry=a2u

 Vector    3  Occ=0.000000D+00  E= 1.967525D-01  Symmetry=a1g

 Vector    4  Occ=0.000000D+00  E= 4.715299D-01  Symmetry=a2u

 Vector    5  Occ=0.000000D+00  E= 2.118318D+00  Symmetry=a1g

 Vector    6  Occ=0.000000D+00  E= 2.375670D+00  Symmetry=a2u

     Multipole analysis of the density
     ---------------------------------

     L   x y z        total         alpha         beta         nuclear
     -   - - -        -----         -----         ----         -------
     0   0 0 0     -0.000000     -1.000000     -1.000000      2.000000

     1   1 0 0      0.000000      0.000000      0.000000      0.000000
     1   0 1 0      0.000000      0.000000      0.000000      0.000000
     1   0 0 1     -0.000000     -0.000000     -0.000000      0.000000

     2   2 0 0     -1.543837     -0.771919     -0.771919      0.000000
     2   1 1 0      0.000000      0.000000      0.000000      0.000000
     2   1 0 1      0.000000      0.000000      0.000000      0.000000
     2   0 2 0     -1.543837     -0.771919     -0.771919      0.000000
     2   0 1 1      0.000000      0.000000      0.000000      0.000000

 Total times  cpu:        1.5s     wall:        1.9s
