         Total DFT energy =      -56.132663818997
@ Step       Energy      Delta E   Gmax     Grms     Xrms     Xmax   Walltime
@ ---- ---------------- -------- -------- -------- -------- -------- --------
@    0     -56.13266382  0.0D+00  0.03041  0.01760  0.00000  0.00000      0.4
         Total DFT energy =      -56.137517292204
         Total DFT energy =      -56.137684666363
@    1     -56.13768467 -5.0D-03  0.00368  0.00204  0.05249  0.10070      1.1
         Total DFT energy =      -56.137864315428
         Total DFT energy =      -56.137880612779
@    2     -56.13788061 -2.0D-04  0.00297  0.00138  0.01738  0.03637      1.8
         Total DFT energy =      -56.137924248332

 Vector   11  Occ=0.000000D+00  E= 7.250211D-01  Symmetry=e

 Vector   12  Occ=0.000000D+00  E= 8.466904D-01  Symmetry=a1

 Vector   13  Occ=0.000000D+00  E= 8.872176D-01  Symmetry=e

 Vector   14  Occ=0.000000D+00  E= 8.872176D-01  Symmetry=e

 Vector   15  Occ=0.000000D+00  E= 1.209794D+00  Symmetry=a1

         Total DFT energy =      -56.137930145493

 Vector    1  Occ=2.000000D+00  E=-1.394512D+01  Symmetry=a1

 Vector    2  Occ=2.000000D+00  E=-7.163888D-01  Symmetry=a1

 Vector    3  Occ=2.000000D+00  E=-3.689789D-01  Symmetry=e

 Vector    4  Occ=2.000000D+00  E=-3.689789D-01  Symmetry=e

 Vector    5  Occ=2.000000D+00  E=-1.365329D-01  Symmetry=a1

 Vector    6  Occ=0.000000D+00  E= 7.011964D-02  Symmetry=a1

 Vector    7  Occ=0.000000D+00  E= 1.602178D-01  Symmetry=e

 Vector    8  Occ=0.000000D+00  E= 1.602178D-01  Symmetry=e

 Vector    9  Occ=0.000000D+00  E= 7.080893D-01  Symmetry=a1

 Vector   10  Occ=0.000000D+00  E= 7.256741D-01  Symmetry=e

 Vector   11  Occ=0.000000D+00  E= 7.256741D-01  Symmetry=e

 Vector   12  Occ=0.000000D+00  E= 8.460886D-01  Symmetry=a1

 Vector   13  Occ=0.000000D+00  E= 8.889438D-01  Symmetry=e

 Vector   14  Occ=0.000000D+00  E= 8.889438D-01  Symmetry=e

 Vector   15  Occ=0.000000D+00  E= 1.207959D+00  Symmetry=a1

@    3     -56.13793015 -5.0D-05  0.00013  0.00007  0.00898  0.02686      2.5
         Total DFT energy =      -56.137930549636

 Vector    1  Occ=2.000000D+00  E=-1.394496D+01  Symmetry=a1

 Vector    2  Occ=2.000000D+00  E=-7.160956D-01  Symmetry=a1

 Vector    3  Occ=2.000000D+00  E=-3.690297D-01  Symmetry=e

 Vector    4  Occ=2.000000D+00  E=-3.690297D-01  Symmetry=e

 Vector    5  Occ=2.000000D+00  E=-1.363314D-01  Symmetry=a1

 Vector    6  Occ=0.000000D+00  E= 7.020191D-02  Symmetry=a1

 Vector    7  Occ=0.000000D+00  E= 1.602968D-01  Symmetry=e

 Vector    8  Occ=0.000000D+00  E= 1.602968D-01  Symmetry=e

 Vector    9  Occ=0.000000D+00  E= 7.080533D-01  Symmetry=a1

 Vector   10  Occ=0.000000D+00  E= 7.260528D-01  Symmetry=e

 Vector   11  Occ=0.000000D+00  E= 7.260528D-01  Symmetry=e

 Vector   12  Occ=0.000000D+00  E= 8.453293D-01  Symmetry=a1

 Vector   13  Occ=0.000000D+00  E= 8.891104D-01  Symmetry=e

 Vector   14  Occ=0.000000D+00  E= 8.891104D-01  Symmetry=e

 Vector   15  Occ=0.000000D+00  E= 1.207298D+00  Symmetry=a1

         Total DFT energy =    -56.137930549636
@    4     -56.13793055 -4.0D-07  0.00002  0.00001  0.00104  0.00270      2.9
         Total DFT energy =      -56.137930552813

 Vector    1  Occ=2.000000D+00  E=-1.394494D+01  Symmetry=a1

 Vector    2  Occ=2.000000D+00  E=-7.160687D-01  Symmetry=a1

 Vector    3  Occ=2.000000D+00  E=-3.690429D-01  Symmetry=e

 Vector    4  Occ=2.000000D+00  E=-3.690429D-01  Symmetry=e

 Vector    5  Occ=2.000000D+00  E=-1.363074D-01  Symmetry=a1

 Vector    6  Occ=0.000000D+00  E= 7.022139D-02  Symmetry=a1

 Vector    7  Occ=0.000000D+00  E= 1.603156D-01  Symmetry=e

 Vector    8  Occ=0.000000D+00  E= 1.603156D-01  Symmetry=e

 Vector    9  Occ=0.000000D+00  E= 7.080492D-01  Symmetry=a1

 Vector   10  Occ=0.000000D+00  E= 7.260906D-01  Symmetry=e

 Vector   11  Occ=0.000000D+00  E= 7.260906D-01  Symmetry=e

 Vector   12  Occ=0.000000D+00  E= 8.452677D-01  Symmetry=a1

 Vector   13  Occ=0.000000D+00  E= 8.891554D-01  Symmetry=e

 Vector   14  Occ=0.000000D+00  E= 8.891554D-01  Symmetry=e

 Vector   15  Occ=0.000000D+00  E= 1.207221D+00  Symmetry=a1

         Total DFT energy =    -56.137930552813
@    5     -56.13793055 -3.2D-09  0.00000  0.00000  0.00012  0.00035      3.3
@    5     -56.13793055 -3.2D-09  0.00000  0.00000  0.00012  0.00035      3.3

 Output coordinates in angstroms (scale by  1.889725989 to convert to a.u.)

  No.       Tag          Charge          X              Y              Z
 ---- ---------------- ---------- -------------- -------------- --------------
    1 N                    7.0000    -0.00000000    -0.00000000     0.06413197
    2 H                    1.0000     0.69812779     0.69812779    -0.23935211
    3 H                    1.0000     0.25553250    -0.95366029    -0.23935211
    4 H                    1.0000    -0.95366029     0.25553250    -0.23935211

         Total DFT energy =      -56.166466177865

 Vector    1  Occ=2.000000D+00  E=-1.398261D+01

 Vector    2  Occ=2.000000D+00  E=-7.335125D-01

 Vector    3  Occ=2.000000D+00  E=-3.887594D-01

 Vector    4  Occ=2.000000D+00  E=-3.887594D-01

 Vector    5  Occ=2.000000D+00  E=-1.797694D-01

 Vector    6  Occ=0.000000D+00  E= 1.270122D-02

 Vector    7  Occ=0.000000D+00  E= 7.931964D-02

 Vector    8  Occ=0.000000D+00  E= 7.931965D-02

 Vector    9  Occ=0.000000D+00  E= 1.111828D-01

 Vector   10  Occ=0.000000D+00  E= 1.843895D-01

 Vector   11  Occ=0.000000D+00  E= 1.843895D-01

 Vector   12  Occ=0.000000D+00  E= 2.222836D-01

 Vector   13  Occ=0.000000D+00  E= 8.271811D-01

 Vector   14  Occ=0.000000D+00  E= 8.271811D-01

 Vector   15  Occ=0.000000D+00  E= 8.545560D-01

 Zero-Point correction to Energy  =   20.201 kcal/mol  (  0.032193 au)
 Thermal correction to Energy     =   22.046 kcal/mol  (  0.035133 au)
 Thermal correction to Enthalpy   =   22.638 kcal/mol  (  0.036076 au)
 Total Entropy                    =   46.257 cal/mol-K
   - Translational                =   34.425 cal/mol-K (mol. weight =  17.0265)
   - Rotational                   =   11.540 cal/mol-K (symmetry #  =        3)
   - Vibrational                  =    0.291 cal/mol-K
   - Translational                  =    2.979 cal/mol-K
   - Rotational                     =    2.979 cal/mol-K
   - Vibrational                    =    0.879 cal/mol-K
 P.Frequency       -0.00       -0.00        0.00        0.00        0.00        0.00
 P.Frequency      726.01     1615.88     1615.88     3292.12     3443.89     3443.89

 Normal Eigenvalue ||           Projected Infra Red Intensities
  Mode   [cm**-1]  || [atomic units] [(debye/angs)**2] [(KM/mol)] [arbitrary]
 ------ ---------- || -------------- ----------------- ---------- -----------
    1       -0.000 ||    0.000008           0.000         0.008       0.002
    2       -0.000 ||    0.000076           0.002         0.074       0.020
    3        0.000 ||    0.050229           1.159        48.966      12.941
    4        0.000 ||    0.011229           0.259        10.947       2.893
    5        0.000 ||    0.045131           1.041        43.996      11.628
    6        0.000 ||    0.000033           0.001         0.032       0.008
    7      726.013 ||    0.276735           6.384       269.775      71.299
    8     1615.876 ||    0.035754           0.825        34.855       9.212
    9     1615.877 ||    0.035754           0.825        34.855       9.212
   10     3292.122 ||    0.003358           0.077         3.274       0.865
   11     3443.891 ||    0.003727           0.086         3.633       0.960
   12     3443.891 ||    0.003727           0.086         3.634       0.960
 ----------------------------------------------------------------------------

         Total DFT energy =      -56.183663238946

                       DFT Final Molecular Orbital Analysis
                       ------------------------------------

 Vector    1  Occ=2.000000D+00  E=-1.395459D+01  Symmetry=a1

 Vector    2  Occ=2.000000D+00  E=-7.332399D-01  Symmetry=a1

 Vector    3  Occ=2.000000D+00  E=-3.891379D-01  Symmetry=e

 Vector    4  Occ=2.000000D+00  E=-3.891379D-01  Symmetry=e

 Vector    5  Occ=2.000000D+00  E=-1.799500D-01  Symmetry=a1

 Vector    6  Occ=0.000000D+00  E= 6.954452D-03  Symmetry=a1

 Vector    7  Occ=0.000000D+00  E= 7.661264D-02  Symmetry=e

 Vector    8  Occ=0.000000D+00  E= 7.661264D-02  Symmetry=e

 Vector    9  Occ=0.000000D+00  E= 1.065249D-01  Symmetry=a1

 Vector   10  Occ=0.000000D+00  E= 1.409560D-01  Symmetry=e

 Vector   11  Occ=0.000000D+00  E= 1.409560D-01  Symmetry=e

 Vector   12  Occ=0.000000D+00  E= 1.730031D-01  Symmetry=a1

 Vector   13  Occ=0.000000D+00  E= 4.788884D-01  Symmetry=e

 Vector   14  Occ=0.000000D+00  E= 4.788884D-01  Symmetry=e

 Vector   15  Occ=0.000000D+00  E= 5.650705D-01  Symmetry=a1

     Multipole analysis of the density
     ---------------------------------

     L   x y z        total         alpha         beta         nuclear
     -   - - -        -----         -----         ----         -------
     0   0 0 0     -0.000000     -5.000000     -5.000000     10.000000

     1   1 0 0     -0.000000     -0.000000     -0.000000     -0.000000
     1   0 1 0     -0.000000     -0.000000     -0.000000     -0.000000
     1   0 0 1     -0.565358     -0.028386     -0.028386     -0.508587

     2   2 0 0     -4.778376     -4.999899     -4.999899      5.221422
     2   1 1 0      0.000000      0.000000      0.000000     -0.000000
     2   1 0 1     -0.000000     -0.000000     -0.000000      0.000000
     2   0 2 0     -4.778376     -4.999899     -4.999899      5.221422
     2   0 1 1     -0.000000     -0.000000     -0.000000      0.000000

 Total times  cpu:       25.5s     wall:       26.4s
