         Total DFT energy =      -56.485741091157
@ Step       Energy      Delta E   Gmax     Grms     Xrms     Xmax   Walltime
@ ---- ---------------- -------- -------- -------- -------- -------- --------
@    0     -56.48574109  0.0D+00  0.04437  0.02500  0.00000  0.00000      1.1
         Total DFT energy =      -56.495811098306
         Total DFT energy =      -56.495986838419
@    1     -56.49598684 -1.0D-02  0.00556  0.00335  0.07920  0.15281      2.5
         Total DFT energy =      -56.496099816564

 Vector   11  Occ=0.000000D+00  E= 1.290379D-01  Symmetry=e

 Vector   12  Occ=0.000000D+00  E= 1.788037D-01  Symmetry=a1

 Vector   13  Occ=0.000000D+00  E= 4.560996D-01  Symmetry=e

 Vector   14  Occ=0.000000D+00  E= 4.560996D-01  Symmetry=e

 Vector   15  Occ=0.000000D+00  E= 5.785289D-01  Symmetry=a1

         Total DFT energy =      -56.496107519673

 Vector    1  Occ=2.000000D+00  E=-1.396817D+01  Symmetry=a1

 Vector    2  Occ=2.000000D+00  E=-7.794652D-01  Symmetry=a1

 Vector    3  Occ=2.000000D+00  E=-4.179116D-01  Symmetry=e

 Vector    4  Occ=2.000000D+00  E=-4.179116D-01  Symmetry=e

 Vector    5  Occ=2.000000D+00  E=-2.198070D-01  Symmetry=a1

 Vector    6  Occ=0.000000D+00  E=-5.181149D-03  Symmetry=a1

 Vector    7  Occ=0.000000D+00  E= 7.552295D-02  Symmetry=e

 Vector    8  Occ=0.000000D+00  E= 7.552295D-02  Symmetry=e

 Vector    9  Occ=0.000000D+00  E= 1.033169D-01  Symmetry=a1

 Vector   10  Occ=0.000000D+00  E= 1.295910D-01  Symmetry=e

 Vector   11  Occ=0.000000D+00  E= 1.295910D-01  Symmetry=e

 Vector   12  Occ=0.000000D+00  E= 1.793184D-01  Symmetry=a1

 Vector   13  Occ=0.000000D+00  E= 4.567667D-01  Symmetry=e

 Vector   14  Occ=0.000000D+00  E= 4.567667D-01  Symmetry=e

 Vector   15  Occ=0.000000D+00  E= 5.791886D-01  Symmetry=a1

@    2     -56.49610752 -1.2D-04  0.00027  0.00010  0.00626  0.01166      3.9
         Total DFT energy =      -56.496108025106

 Vector    1  Occ=2.000000D+00  E=-1.396810D+01  Symmetry=a1

 Vector    2  Occ=2.000000D+00  E=-7.793385D-01  Symmetry=a1

 Vector    3  Occ=2.000000D+00  E=-4.180392D-01  Symmetry=e

 Vector    4  Occ=2.000000D+00  E=-4.180392D-01  Symmetry=e

 Vector    5  Occ=2.000000D+00  E=-2.196074D-01  Symmetry=a1

 Vector    6  Occ=0.000000D+00  E=-5.089375D-03  Symmetry=a1

 Vector    7  Occ=0.000000D+00  E= 7.548965D-02  Symmetry=e

 Vector    8  Occ=0.000000D+00  E= 7.548965D-02  Symmetry=e

 Vector    9  Occ=0.000000D+00  E= 1.032982D-01  Symmetry=a1

 Vector   10  Occ=0.000000D+00  E= 1.296547D-01  Symmetry=e

 Vector   11  Occ=0.000000D+00  E= 1.296547D-01  Symmetry=e

 Vector   12  Occ=0.000000D+00  E= 1.790943D-01  Symmetry=a1

 Vector   13  Occ=0.000000D+00  E= 4.569510D-01  Symmetry=e

 Vector   14  Occ=0.000000D+00  E= 4.569510D-01  Symmetry=e

 Vector   15  Occ=0.000000D+00  E= 5.786769D-01  Symmetry=a1

         Total DFT energy =    -56.496108025106
@    3     -56.49610803 -5.1D-07  0.00003  0.00001  0.00079  0.00196      4.7
         Total DFT energy =      -56.496108028639

 Vector    1  Occ=2.000000D+00  E=-1.396806D+01  Symmetry=a1

 Vector    2  Occ=2.000000D+00  E=-7.793120D-01  Symmetry=a1

 Vector    3  Occ=2.000000D+00  E=-4.180440D-01  Symmetry=e

 Vector    4  Occ=2.000000D+00  E=-4.180440D-01  Symmetry=e

 Vector    5  Occ=2.000000D+00  E=-2.195703D-01  Symmetry=a1

 Vector    6  Occ=0.000000D+00  E=-5.075371D-03  Symmetry=a1

 Vector    7  Occ=0.000000D+00  E= 7.548895D-02  Symmetry=e

 Vector    8  Occ=0.000000D+00  E= 7.548895D-02  Symmetry=e

 Vector    9  Occ=0.000000D+00  E= 1.032995D-01  Symmetry=a1

 Vector   10  Occ=0.000000D+00  E= 1.296668D-01  Symmetry=e

 Vector   11  Occ=0.000000D+00  E= 1.296668D-01  Symmetry=e

 Vector   12  Occ=0.000000D+00  E= 1.790724D-01  Symmetry=a1

 Vector   13  Occ=0.000000D+00  E= 4.569778D-01  Symmetry=e

 Vector   14  Occ=0.000000D+00  E= 4.569778D-01  Symmetry=e

 Vector   15  Occ=0.000000D+00  E= 5.786223D-01  Symmetry=a1

         Total DFT energy =    -56.496108028639
@    4     -56.49610803 -3.5D-09  0.00000  0.00000  0.00009  0.00023      5.3
@    4     -56.49610803 -3.5D-09  0.00000  0.00000  0.00009  0.00023      5.3

 Output coordinates in angstroms (scale by  1.889725989 to convert to a.u.)

  No.       Tag          Charge          X              Y              Z
 ---- ---------------- ---------- -------------- -------------- --------------
    1 N                    7.0000     0.00000000     0.00000000     0.11678236
    2 H                    1.0000     0.67252311     0.67252311    -0.25690224
    3 H                    1.0000     0.24616054    -0.91868365    -0.25690224
    4 H                    1.0000    -0.91868365     0.24616054    -0.25690224

         Total DFT energy =      -56.496108405859

 Vector    1  Occ=2.000000D+00  E=-1.396809D+01

 Vector    2  Occ=2.000000D+00  E=-7.793252D-01

 Vector    3  Occ=2.000000D+00  E=-4.180550D-01

 Vector    4  Occ=2.000000D+00  E=-4.180550D-01

 Vector    5  Occ=2.000000D+00  E=-2.195842D-01

 Vector    6  Occ=0.000000D+00  E=-5.078627D-03

 Vector    7  Occ=0.000000D+00  E= 7.548590D-02

 Vector    8  Occ=0.000000D+00  E= 7.548593D-02

 Vector    9  Occ=0.000000D+00  E= 1.032959D-01

 Vector   10  Occ=0.000000D+00  E= 1.296632D-01

 Vector   11  Occ=0.000000D+00  E= 1.296632D-01

 Vector   12  Occ=0.000000D+00  E= 1.790689D-01

 Vector   13  Occ=0.000000D+00  E= 4.569735D-01

 Vector   14  Occ=0.000000D+00  E= 4.569735D-01

 Vector   15  Occ=0.000000D+00  E= 5.786185D-01

 Zero-Point correction to Energy  =   21.284 kcal/mol  (  0.033919 au)
 Thermal correction to Energy     =   23.083 kcal/mol  (  0.036785 au)
 Thermal correction to Enthalpy   =   23.675 kcal/mol  (  0.037729 au)
 Total Entropy                    =   45.993 cal/mol-K
   - Translational                =   34.425 cal/mol-K (mol. weight =  17.0265)
   - Rotational                   =   11.480 cal/mol-K (symmetry #  =        3)
   - Vibrational                  =    0.088 cal/mol-K
   - Translational                  =    2.979 cal/mol-K
   - Rotational                     =    2.979 cal/mol-K
   - Vibrational                    =    0.404 cal/mol-K
 P.Frequency       -0.00       -0.00        0.00        0.00        0.00        0.00
 P.Frequency     1046.35     1693.64     1693.64     3396.02     3533.04     3533.04

 Normal Eigenvalue ||           Projected Infra Red Intensities
  Mode   [cm**-1]  || [atomic units] [(debye/angs)**2] [(KM/mol)] [arbitrary]
 ------ ---------- || -------------- ----------------- ---------- -----------
    1       -0.000 ||    0.000099           0.002         0.097       0.024
    2       -0.000 ||    0.000221           0.005         0.216       0.054
    3        0.000 ||    0.082475           1.903        80.400      20.104
    4        0.000 ||    0.012824           0.296        12.502       3.126
    5        0.000 ||    0.000018           0.000         0.017       0.004
    6        0.000 ||    0.069898           1.613        68.140      17.038
    7     1046.347 ||    0.244699           5.645       238.545      59.648
    8     1693.640 ||    0.037430           0.864        36.488       9.124
    9     1693.642 ||    0.037428           0.864        36.487       9.123
   10     3396.023 ||    0.006637           0.153         6.470       1.618
   11     3533.036 ||    0.000280           0.006         0.273       0.068
   12     3533.036 ||    0.000280           0.006         0.273       0.068
 ----------------------------------------------------------------------------

         Total DFT energy =      -56.203621196517

                       DFT Final Molecular Orbital Analysis
                       ------------------------------------

 Vector    1  Occ=2.000000D+00  E=-1.554797D+01  Symmetry=a1

 Vector    2  Occ=2.000000D+00  E=-1.139327D+00  Symmetry=a1

 Vector    3  Occ=2.000000D+00  E=-6.293896D-01  Symmetry=e

 Vector    4  Occ=2.000000D+00  E=-6.293896D-01  Symmetry=e

 Vector    5  Occ=2.000000D+00  E=-4.246885D-01  Symmetry=a1

 Vector    6  Occ=0.000000D+00  E= 9.960770D-02  Symmetry=a1

 Vector    7  Occ=0.000000D+00  E= 1.617939D-01  Symmetry=e

 Vector    8  Occ=0.000000D+00  E= 1.617939D-01  Symmetry=e

 Vector    9  Occ=0.000000D+00  E= 1.971225D-01  Symmetry=a1

 Vector   10  Occ=0.000000D+00  E= 2.707748D-01  Symmetry=e

 Vector   11  Occ=0.000000D+00  E= 2.707748D-01  Symmetry=e

 Vector   12  Occ=0.000000D+00  E= 3.089348D-01  Symmetry=a1

 Vector   13  Occ=0.000000D+00  E= 6.501391D-01  Symmetry=e

 Vector   14  Occ=0.000000D+00  E= 6.501391D-01  Symmetry=e

 Vector   15  Occ=0.000000D+00  E= 7.944421D-01  Symmetry=a1

     Multipole analysis of the density
     ---------------------------------

     L   x y z        total         alpha         beta         nuclear
     -   - - -        -----         -----         ----         -------
     0   0 0 0     -0.000000     -5.000000     -5.000000     10.000000

     1   1 0 0     -0.000000     -0.000000     -0.000000      0.000000
     1   0 1 0     -0.000000     -0.000000     -0.000000     -0.000000
     1   0 0 1     -0.744235     -0.416309     -0.416309      0.088382

     2   2 0 0     -4.577559     -4.711500     -4.711500      4.845441
     2   1 1 0     -0.000000     -0.000000     -0.000000     -0.000000
     2   1 0 1     -0.000000     -0.000000     -0.000000      0.000000
     2   0 2 0     -4.577559     -4.711500     -4.711500      4.845441
     2   0 1 1      0.000000      0.000000      0.000000      0.000000

 Total times  cpu:       26.7s     wall:       28.1s
