         Total DFT energy =     -108.867618372995
@ Step       Energy      Delta E   Gmax     Grms     Xrms     Xmax   Walltime
@ ---- ---------------- -------- -------- -------- -------- -------- --------
@    0    -108.86761837  0.0D+00  0.03717  0.03717  0.00000  0.00000      0.2
         Total DFT energy =     -108.866657082667

 Vector    7  Occ=2.000000D+00  E=-6.320912D-01  Symmetry=a1g

 Vector    8  Occ=0.000000D+00  E= 1.663252D-01  Symmetry=eg

 Vector    9  Occ=0.000000D+00  E= 1.663252D-01  Symmetry=eg

 Vector   10  Occ=0.000000D+00  E= 6.006212D-01  Symmetry=a2u

 Vector   11  Occ=0.000000D+00  E= 7.737707D-01  Symmetry=a1g

 Vector   12  Occ=0.000000D+00  E= 8.405318D-01  Symmetry=eu

 Vector   13  Occ=0.000000D+00  E= 8.405318D-01  Symmetry=eu

 Vector   14  Occ=0.000000D+00  E= 9.474792D-01  Symmetry=a1g

 Vector   15  Occ=0.000000D+00  E= 1.018648D+00  Symmetry=eg

 Vector   16  Occ=0.000000D+00  E= 1.018648D+00  Symmetry=eg

 Vector   17  Occ=0.000000D+00  E= 1.194052D+00  Symmetry=a2u

         Total DFT energy =     -108.868004604667

 Vector    1  Occ=2.000000D+00  E=-1.571571D+01  Symmetry=a1g

 Vector    2  Occ=2.000000D+00  E=-1.571214D+01  Symmetry=a2u

 Vector    3  Occ=2.000000D+00  E=-1.533490D+00  Symmetry=a1g

 Vector    4  Occ=2.000000D+00  E=-7.722289D-01  Symmetry=a2u

 Vector    5  Occ=2.000000D+00  E=-6.303493D-01  Symmetry=a1g

 Vector    6  Occ=2.000000D+00  E=-6.257100D-01  Symmetry=eu

 Vector    7  Occ=2.000000D+00  E=-6.257100D-01  Symmetry=eu

 Vector    8  Occ=0.000000D+00  E= 1.554143D-01  Symmetry=eg

 Vector    9  Occ=0.000000D+00  E= 1.554143D-01  Symmetry=eg

 Vector   10  Occ=0.000000D+00  E= 5.928003D-01  Symmetry=a2u

 Vector   11  Occ=0.000000D+00  E= 7.824857D-01  Symmetry=a1g

 Vector   12  Occ=0.000000D+00  E= 8.456528D-01  Symmetry=eu

 Vector   13  Occ=0.000000D+00  E= 8.456528D-01  Symmetry=eu

 Vector   14  Occ=0.000000D+00  E= 9.453068D-01  Symmetry=a1g

 Vector   15  Occ=0.000000D+00  E= 1.012538D+00  Symmetry=eg

 Vector   16  Occ=0.000000D+00  E= 1.012538D+00  Symmetry=eg

 Vector   17  Occ=0.000000D+00  E= 1.166173D+00  Symmetry=a2u

@    1    -108.86800460 -3.9D-04  0.00126  0.00126  0.00574  0.00994      0.7
         Total DFT energy =     -108.868005025426

 Vector    1  Occ=2.000000D+00  E=-1.571561D+01  Symmetry=a1g

 Vector    2  Occ=2.000000D+00  E=-1.571203D+01  Symmetry=a2u

 Vector    3  Occ=2.000000D+00  E=-1.533775D+00  Symmetry=a1g

 Vector    4  Occ=2.000000D+00  E=-7.721036D-01  Symmetry=a2u

 Vector    5  Occ=2.000000D+00  E=-6.303831D-01  Symmetry=a1g

 Vector    6  Occ=2.000000D+00  E=-6.258678D-01  Symmetry=eu

 Vector    7  Occ=2.000000D+00  E=-6.258678D-01  Symmetry=eu

 Vector    8  Occ=0.000000D+00  E= 1.556129D-01  Symmetry=eg

 Vector    9  Occ=0.000000D+00  E= 1.556129D-01  Symmetry=eg

 Vector   10  Occ=0.000000D+00  E= 5.929531D-01  Symmetry=a2u

 Vector   11  Occ=0.000000D+00  E= 7.823201D-01  Symmetry=a1g

 Vector   12  Occ=0.000000D+00  E= 8.455626D-01  Symmetry=eu

 Vector   13  Occ=0.000000D+00  E= 8.455626D-01  Symmetry=eu

 Vector   14  Occ=0.000000D+00  E= 9.453446D-01  Symmetry=a1g

 Vector   15  Occ=0.000000D+00  E= 1.012647D+00  Symmetry=eg

 Vector   16  Occ=0.000000D+00  E= 1.012647D+00  Symmetry=eg

 Vector   17  Occ=0.000000D+00  E= 1.166695D+00  Symmetry=a2u

         Total DFT energy =   -108.868005025426
@    2    -108.86800503 -4.2D-07  0.00005  0.00005  0.00020  0.00035      0.8
@    2    -108.86800503 -4.2D-07  0.00005  0.00005  0.00020  0.00035      0.8

 Output coordinates in angstroms (scale by  1.889725989 to convert to a.u.)

  No.       Tag          Charge          X              Y              Z
 ---- ---------------- ---------- -------------- -------------- --------------
    1 N                    7.0000     0.00000000     0.00000000    -0.54455603
    2 N                    7.0000     0.00000000     0.00000000     0.54455603

         Total DFT energy =     -108.946609510170

 Vector    1  Occ=2.000000D+00  E=-1.570094D+01

 Vector    2  Occ=2.000000D+00  E=-1.569736D+01

 Vector    3  Occ=2.000000D+00  E=-1.486684D+00

 Vector    4  Occ=2.000000D+00  E=-7.781778D-01

 Vector    5  Occ=2.000000D+00  E=-6.355135D-01

 Vector    6  Occ=2.000000D+00  E=-6.206010D-01

 Vector    7  Occ=2.000000D+00  E=-6.206010D-01

 Vector    8  Occ=0.000000D+00  E= 1.311539D-01

 Vector    9  Occ=0.000000D+00  E= 1.311539D-01

 Vector   10  Occ=0.000000D+00  E= 1.429221D-01

 Vector   11  Occ=0.000000D+00  E= 1.463014D-01

 Vector   12  Occ=0.000000D+00  E= 1.680897D-01

 Vector   13  Occ=0.000000D+00  E= 1.680897D-01

 Vector   14  Occ=0.000000D+00  E= 2.207804D-01

 Vector   15  Occ=0.000000D+00  E= 2.775808D-01

 Vector   16  Occ=0.000000D+00  E= 2.775808D-01

 Vector   17  Occ=0.000000D+00  E= 3.341892D-01

 Vector   18  Occ=0.000000D+00  E= 7.134915D-01

 Zero-Point correction to Energy  =    3.790 kcal/mol  (  0.006040 au)
 Thermal correction to Energy     =    5.271 kcal/mol  (  0.008400 au)
 Thermal correction to Enthalpy   =    5.863 kcal/mol  (  0.009343 au)
 Total Entropy                    =   45.706 cal/mol-K
   - Translational                =   35.908 cal/mol-K (mol. weight =  28.0061)
   - Rotational                   =    9.798 cal/mol-K (symmetry #  =        2)
   - Vibrational                  =    0.000 cal/mol-K
   - Translational                  =    2.979 cal/mol-K
   - Rotational                     =    1.986 cal/mol-K
   - Vibrational                    =    0.001 cal/mol-K
 P.Frequency       -0.00        0.00        0.00        0.00        0.00     2652.64

 Normal Eigenvalue ||           Projected Infra Red Intensities
  Mode   [cm**-1]  || [atomic units] [(debye/angs)**2] [(KM/mol)] [arbitrary]
 ------ ---------- || -------------- ----------------- ---------- -----------
    1       -0.000 ||    0.000000           0.000         0.000       1.424
    2        0.000 ||    0.000000           0.000         0.000       3.570
    3        0.000 ||    0.000000           0.000         0.000       2.532
    4        0.000 ||    0.000000           0.000         0.000       1.911
    5        0.000 ||    0.000000           0.000         0.000       1.423
    6     2652.639 ||    0.000000           0.000         0.000      49.140
 ----------------------------------------------------------------------------

         Total DFT energy =     -108.894557911782

                       DFT Final Molecular Orbital Analysis
                       ------------------------------------

 Vector    1  Occ=2.000000D+00  E=-1.570631D+01  Symmetry=a1g

 Vector    2  Occ=2.000000D+00  E=-1.570260D+01  Symmetry=a2u

 Vector    3  Occ=2.000000D+00  E=-1.530591D+00  Symmetry=a1g

 Vector    4  Occ=2.000000D+00  E=-7.725087D-01  Symmetry=a2u

 Vector    5  Occ=2.000000D+00  E=-6.307243D-01  Symmetry=a1g

 Vector    6  Occ=2.000000D+00  E=-6.258624D-01  Symmetry=eu

 Vector    7  Occ=2.000000D+00  E=-6.258624D-01  Symmetry=eu

 Vector    8  Occ=0.000000D+00  E= 1.536611D-01  Symmetry=eg

 Vector    9  Occ=0.000000D+00  E= 1.536611D-01  Symmetry=eg

 Vector   10  Occ=0.000000D+00  E= 5.587377D-01  Symmetry=a2u

 Vector   11  Occ=0.000000D+00  E= 6.745491D-01  Symmetry=a1g

 Vector   12  Occ=0.000000D+00  E= 7.037013D-01  Symmetry=eu

 Vector   13  Occ=0.000000D+00  E= 7.037013D-01  Symmetry=eu

 Vector   14  Occ=0.000000D+00  E= 8.166235D-01  Symmetry=a1g

 Vector   15  Occ=0.000000D+00  E= 8.894363D-01  Symmetry=eg

 Vector   16  Occ=0.000000D+00  E= 8.894363D-01  Symmetry=eg

 Vector   17  Occ=0.000000D+00  E= 1.018535D+00  Symmetry=a2u

     Multipole analysis of the density
     ---------------------------------

     L   x y z        total         alpha         beta         nuclear
     -   - - -        -----         -----         ----         -------
     0   0 0 0     -0.000000     -7.000000     -7.000000     14.000000

     1   1 0 0      0.000000      0.000000      0.000000      0.000000
     1   0 1 0     -0.000000     -0.000000     -0.000000      0.000000
     1   0 0 1      0.000000      0.000000      0.000000      0.000000

     2   2 0 0     -7.610701     -3.805350     -3.805350      0.000000
     2   1 1 0     -0.000000     -0.000000     -0.000000      0.000000
     2   1 0 1     -0.000000     -0.000000     -0.000000      0.000000
     2   0 2 0     -7.610701     -3.805350     -3.805350      0.000000
     2   0 1 1      0.000000      0.000000      0.000000      0.000000

 Total times  cpu:        2.7s     wall:        3.2s
