         Total DFT energy =      -56.184964240538
@ Step       Energy      Delta E   Gmax     Grms     Xrms     Xmax   Walltime
@ ---- ---------------- -------- -------- -------- -------- -------- --------
@    0     -56.18496424  0.0D+00  0.06462  0.03746  0.00000  0.00000      0.4
         Total DFT energy =      -56.204896336295
         Total DFT energy =      -56.204573312740

 Vector   11  Occ=0.000000D+00  E= 2.808956D-01  Symmetry=e

 Vector   12  Occ=0.000000D+00  E= 3.154543D-01  Symmetry=a1

 Vector   13  Occ=0.000000D+00  E= 6.619467D-01  Symmetry=e

 Vector   14  Occ=0.000000D+00  E= 6.619467D-01  Symmetry=e

 Vector   15  Occ=0.000000D+00  E= 7.951807D-01  Symmetry=a1

@    1     -56.20457331 -2.0D-02  0.01283  0.00691  0.09606  0.18399      0.8
         Total DFT energy =      -56.204935907537

 Vector    1  Occ=2.000000D+00  E=-1.554096D+01  Symmetry=a1

 Vector    2  Occ=2.000000D+00  E=-1.147994D+00  Symmetry=a1

 Vector    3  Occ=2.000000D+00  E=-6.382296D-01  Symmetry=e

 Vector    4  Occ=2.000000D+00  E=-6.382296D-01  Symmetry=e

 Vector    5  Occ=2.000000D+00  E=-4.234345D-01  Symmetry=a1

 Vector    6  Occ=0.000000D+00  E= 9.928052D-02  Symmetry=a1

 Vector    7  Occ=0.000000D+00  E= 1.602578D-01  Symmetry=e

 Vector    8  Occ=0.000000D+00  E= 1.602578D-01  Symmetry=e

 Vector    9  Occ=0.000000D+00  E= 1.977989D-01  Symmetry=a1

 Vector   10  Occ=0.000000D+00  E= 2.760550D-01  Symmetry=e

 Vector   11  Occ=0.000000D+00  E= 2.760550D-01  Symmetry=e

 Vector   12  Occ=0.000000D+00  E= 3.129586D-01  Symmetry=a1

 Vector   13  Occ=0.000000D+00  E= 6.564338D-01  Symmetry=e

 Vector   14  Occ=0.000000D+00  E= 6.564338D-01  Symmetry=e

 Vector   15  Occ=0.000000D+00  E= 7.966535D-01  Symmetry=a1

         Total DFT energy =      -56.204983164476

 Vector    1  Occ=2.000000D+00  E=-1.553932D+01  Symmetry=a1

 Vector    2  Occ=2.000000D+00  E=-1.149790D+00  Symmetry=a1

 Vector    3  Occ=2.000000D+00  E=-6.404023D-01  Symmetry=e

 Vector    4  Occ=2.000000D+00  E=-6.404023D-01  Symmetry=e

 Vector    5  Occ=2.000000D+00  E=-4.228555D-01  Symmetry=a1

 Vector    6  Occ=0.000000D+00  E= 9.938164D-02  Symmetry=a1

 Vector    7  Occ=0.000000D+00  E= 1.598428D-01  Symmetry=e

 Vector    8  Occ=0.000000D+00  E= 1.598428D-01  Symmetry=e

 Vector    9  Occ=0.000000D+00  E= 1.979249D-01  Symmetry=a1

 Vector   10  Occ=0.000000D+00  E= 2.773089D-01  Symmetry=e

 Vector   11  Occ=0.000000D+00  E= 2.773089D-01  Symmetry=e

 Vector   12  Occ=0.000000D+00  E= 3.135896D-01  Symmetry=a1

 Vector   13  Occ=0.000000D+00  E= 6.579189D-01  Symmetry=e

 Vector   14  Occ=0.000000D+00  E= 6.579189D-01  Symmetry=e

 Vector   15  Occ=0.000000D+00  E= 7.963392D-01  Symmetry=a1

@    2     -56.20498316 -4.1D-04  0.00014  0.00005  0.01002  0.02149      1.3
         Total DFT energy =      -56.204983269425

 Vector    1  Occ=2.000000D+00  E=-1.553943D+01  Symmetry=a1

 Vector    2  Occ=2.000000D+00  E=-1.149882D+00  Symmetry=a1

 Vector    3  Occ=2.000000D+00  E=-6.403436D-01  Symmetry=e

 Vector    4  Occ=2.000000D+00  E=-6.403436D-01  Symmetry=e

 Vector    5  Occ=2.000000D+00  E=-4.230142D-01  Symmetry=a1

 Vector    6  Occ=0.000000D+00  E= 9.930192D-02  Symmetry=a1

 Vector    7  Occ=0.000000D+00  E= 1.598735D-01  Symmetry=e

 Vector    8  Occ=0.000000D+00  E= 1.598735D-01  Symmetry=e

 Vector    9  Occ=0.000000D+00  E= 1.979259D-01  Symmetry=a1

 Vector   10  Occ=0.000000D+00  E= 2.772648D-01  Symmetry=e

 Vector   11  Occ=0.000000D+00  E= 2.772648D-01  Symmetry=e

 Vector   12  Occ=0.000000D+00  E= 3.137127D-01  Symmetry=a1

 Vector   13  Occ=0.000000D+00  E= 6.578341D-01  Symmetry=e

 Vector   14  Occ=0.000000D+00  E= 6.578341D-01  Symmetry=e

 Vector   15  Occ=0.000000D+00  E= 7.966176D-01  Symmetry=a1

         Total DFT energy =    -56.204983269425
@    3     -56.20498327 -1.0D-07  0.00003  0.00001  0.00041  0.00102      1.5
@    3     -56.20498327 -1.0D-07  0.00003  0.00001  0.00041  0.00102      1.5

 Output coordinates in angstroms (scale by  1.889725989 to convert to a.u.)

  No.       Tag          Charge          X              Y              Z
 ---- ---------------- ---------- -------------- -------------- --------------
    1 N                    7.0000    -0.00000000    -0.00000000     0.10107326
    2 H                    1.0000     0.66062701     0.66062701    -0.25166588
    3 H                    1.0000     0.24180627    -0.90243327    -0.25166588
    4 H                    1.0000    -0.90243327     0.24180627    -0.25166588

         Total DFT energy =      -56.204983281295

 Vector    1  Occ=2.000000D+00  E=-1.553936D+01

 Vector    2  Occ=2.000000D+00  E=-1.149867D+00

 Vector    3  Occ=2.000000D+00  E=-6.403266D-01

 Vector    4  Occ=2.000000D+00  E=-6.403266D-01

 Vector    5  Occ=2.000000D+00  E=-4.229946D-01

 Vector    6  Occ=0.000000D+00  E= 9.930277D-02

 Vector    7  Occ=0.000000D+00  E= 1.598752D-01

 Vector    8  Occ=0.000000D+00  E= 1.598752D-01

 Vector    9  Occ=0.000000D+00  E= 1.979278D-01

 Vector   10  Occ=0.000000D+00  E= 2.772681D-01

 Vector   11  Occ=0.000000D+00  E= 2.772681D-01

 Vector   12  Occ=0.000000D+00  E= 3.137157D-01

 Vector   13  Occ=0.000000D+00  E= 6.578403D-01

 Vector   14  Occ=0.000000D+00  E= 6.578403D-01

 Vector   15  Occ=0.000000D+00  E= 7.966207D-01

 Zero-Point correction to Energy  =   23.322 kcal/mol  (  0.037166 au)
 Thermal correction to Energy     =   25.112 kcal/mol  (  0.040019 au)
 Thermal correction to Enthalpy   =   25.704 kcal/mol  (  0.040962 au)
 Total Entropy                    =   45.820 cal/mol-K
   - Translational                =   34.425 cal/mol-K (mol. weight =  17.0265)
   - Rotational                   =   11.343 cal/mol-K (symmetry #  =        3)
   - Vibrational                  =    0.051 cal/mol-K
   - Translational                  =    2.979 cal/mol-K
   - Rotational                     =    2.979 cal/mol-K
   - Vibrational                    =    0.264 cal/mol-K
 P.Frequency        0.00        0.00        0.00        0.00        0.00        0.00
 P.Frequency     1171.70     1864.19     1864.19     3723.02     3849.42     3849.43

 Normal Eigenvalue ||           Projected Infra Red Intensities
  Mode   [cm**-1]  || [atomic units] [(debye/angs)**2] [(KM/mol)] [arbitrary]
 ------ ---------- || -------------- ----------------- ---------- -----------
    1        0.000 ||    0.017315           0.399        16.880       3.968
    2        0.000 ||    0.000146           0.003         0.142       0.033
    3        0.000 ||    0.090268           2.083        87.998      20.687
    4        0.000 ||    0.000260           0.006         0.254       0.060
    5        0.000 ||    0.072830           1.680        70.998      16.691
    6        0.000 ||    0.000062           0.001         0.061       0.014
    7     1171.700 ||    0.269507           6.218       262.729      61.765
    8     1864.195 ||    0.035110           0.810        34.227       8.046
    9     1864.195 ||    0.035110           0.810        34.227       8.046
   10     3723.018 ||    0.000353           0.008         0.344       0.081
   11     3849.425 ||    0.001326           0.031         1.293       0.304
   12     3849.425 ||    0.001326           0.031         1.293       0.304
 ----------------------------------------------------------------------------

         Total DFT energy =      -56.204983281716

                       DFT Final Molecular Orbital Analysis
                       ------------------------------------

 Vector    1  Occ=2.000000D+00  E=-1.553936D+01  Symmetry=a1

 Vector    2  Occ=2.000000D+00  E=-1.149866D+00  Symmetry=a1

 Vector    3  Occ=2.000000D+00  E=-6.403256D-01  Symmetry=e

 Vector    4  Occ=2.000000D+00  E=-6.403256D-01  Symmetry=e

 Vector    5  Occ=2.000000D+00  E=-4.229944D-01  Symmetry=a1

 Vector    6  Occ=0.000000D+00  E= 9.930324D-02  Symmetry=a1

 Vector    7  Occ=0.000000D+00  E= 1.598752D-01  Symmetry=e

 Vector    8  Occ=0.000000D+00  E= 1.598752D-01  Symmetry=e

 Vector    9  Occ=0.000000D+00  E= 1.979272D-01  Symmetry=a1

 Vector   10  Occ=0.000000D+00  E= 2.772684D-01  Symmetry=e

 Vector   11  Occ=0.000000D+00  E= 2.772684D-01  Symmetry=e

 Vector   12  Occ=0.000000D+00  E= 3.137162D-01  Symmetry=a1

 Vector   13  Occ=0.000000D+00  E= 6.578407D-01  Symmetry=e

 Vector   14  Occ=0.000000D+00  E= 6.578407D-01  Symmetry=e

 Vector   15  Occ=0.000000D+00  E= 7.966212D-01  Symmetry=a1

     Multipole analysis of the density
     ---------------------------------

     L   x y z        total         alpha         beta         nuclear
     -   - - -        -----         -----         ----         -------
     0   0 0 0     -0.000000     -5.000000     -5.000000     10.000000

     1   1 0 0     -0.000000     -0.000000     -0.000000     -0.000000
     1   0 1 0     -0.000000     -0.000000     -0.000000     -0.000000
     1   0 0 1     -0.725323     -0.317795     -0.317795     -0.089733

     2   2 0 0     -4.543377     -4.609458     -4.609458      4.675538
     2   1 1 0     -0.000000     -0.000000     -0.000000     -0.000000
     2   1 0 1     -0.000000     -0.000000     -0.000000      0.000000
     2   0 2 0     -4.543377     -4.609458     -4.609458      4.675538
     2   0 1 1      0.000000      0.000000      0.000000      0.000000

 Total times  cpu:        3.3s     wall:        3.8s
