         Total DFT energy =       -1.127970657506

 Vector    1  Occ=2.000000D+00  E=-5.955043D-01  Symmetry=a1g

 Vector    2  Occ=0.000000D+00  E= 1.685994D-01  Symmetry=a2u

 Vector    3  Occ=0.000000D+00  E= 3.062230D-01  Symmetry=a1g

 Vector    4  Occ=0.000000D+00  E= 6.507680D-01  Symmetry=a2u

 Vector    5  Occ=0.000000D+00  E= 2.416134D+00  Symmetry=a1g

 Vector    6  Occ=0.000000D+00  E= 2.746922D+00  Symmetry=a2u

@ Step       Energy      Delta E   Gmax     Grms     Xrms     Xmax   Walltime
@ ---- ---------------- -------- -------- -------- -------- -------- --------
@    0      -1.12797066  0.0D+00  0.00719  0.00719  0.00000  0.00000      0.2
         Total DFT energy =       -1.128025932263

 Vector    1  Occ=2.000000D+00  E=-5.997917D-01  Symmetry=a1g

 Vector    2  Occ=0.000000D+00  E= 1.707011D-01  Symmetry=a2u

 Vector    3  Occ=0.000000D+00  E= 3.051171D-01  Symmetry=a1g

 Vector    4  Occ=0.000000D+00  E= 6.570181D-01  Symmetry=a2u

 Vector    5  Occ=0.000000D+00  E= 2.397007D+00  Symmetry=a1g

 Vector    6  Occ=0.000000D+00  E= 2.766475D+00  Symmetry=a2u

         Total DFT energy =       -1.128037972368

 Vector    1  Occ=2.000000D+00  E=-5.985279D-01  Symmetry=a1g

 Vector    2  Occ=0.000000D+00  E= 1.700894D-01  Symmetry=a2u

 Vector    3  Occ=0.000000D+00  E= 3.054408D-01  Symmetry=a1g

 Vector    4  Occ=0.000000D+00  E= 6.551786D-01  Symmetry=a2u

 Vector    5  Occ=0.000000D+00  E= 2.402642D+00  Symmetry=a1g

 Vector    6  Occ=0.000000D+00  E= 2.760639D+00  Symmetry=a2u

@    1      -1.12803797 -6.7D-05  0.00001  0.00001  0.00536  0.00929      0.3
         Total DFT energy =       -1.128037973049

 Vector    1  Occ=2.000000D+00  E=-5.985225D-01  Symmetry=a1g

 Vector    2  Occ=0.000000D+00  E= 1.700868D-01  Symmetry=a2u

 Vector    3  Occ=0.000000D+00  E= 3.054421D-01  Symmetry=a1g

 Vector    4  Occ=0.000000D+00  E= 6.551710D-01  Symmetry=a2u

 Vector    5  Occ=0.000000D+00  E= 2.402666D+00  Symmetry=a1g

 Vector    6  Occ=0.000000D+00  E= 2.760615D+00  Symmetry=a2u

         Total DFT energy =     -1.128037973049
@    2      -1.12803797 -6.8D-10  0.00000  0.00000  0.00001  0.00002      0.4
@    2      -1.12803797 -6.8D-10  0.00000  0.00000  0.00001  0.00002      0.4

 Output coordinates in angstroms (scale by  1.889725989 to convert to a.u.)

  No.       Tag          Charge          X              Y              Z
 ---- ---------------- ---------- -------------- -------------- --------------
    1 H                    1.0000     0.00000000     0.00000000    -0.36579437
    2 H                    1.0000     0.00000000     0.00000000     0.36579437

         Total DFT energy =       -1.128037973051

 Vector    1  Occ=2.000000D+00  E=-5.985226D-01

 Vector    2  Occ=0.000000D+00  E= 1.700868D-01

 Vector    3  Occ=0.000000D+00  E= 3.054421D-01

 Vector    4  Occ=0.000000D+00  E= 6.551709D-01

 Vector    5  Occ=0.000000D+00  E= 2.402666D+00

 Vector    6  Occ=0.000000D+00  E= 2.760614D+00

 Zero-Point correction to Energy  =    6.543 kcal/mol  (  0.010427 au)
 Thermal correction to Energy     =    8.024 kcal/mol  (  0.012786 au)
 Thermal correction to Enthalpy   =    8.616 kcal/mol  (  0.013730 au)
 Total Entropy                    =   31.058 cal/mol-K
   - Translational                =   28.068 cal/mol-K (mol. weight =   2.0156)
   - Rotational                   =    2.990 cal/mol-K (symmetry #  =        2)
   - Vibrational                  =    0.000 cal/mol-K
   - Translational                  =    2.979 cal/mol-K
   - Rotational                     =    1.986 cal/mol-K
   - Vibrational                    =    0.000 cal/mol-K
 P.Frequency        0.00        0.00        0.00        0.00        0.00     4579.09

 Normal Eigenvalue ||           Projected Infra Red Intensities
  Mode   [cm**-1]  || [atomic units] [(debye/angs)**2] [(KM/mol)] [arbitrary]
 ------ ---------- || -------------- ----------------- ---------- -----------
    1        0.000 ||    0.000000           0.000         0.000       2.603
    2        0.000 ||    0.000000           0.000         0.000       2.599
    3        0.000 ||    0.000000           0.000         0.000      17.579
    4        0.000 ||    0.000000           0.000         0.000      17.353
    5        0.000 ||    0.000000           0.000         0.000      19.729
    6     4579.085 ||    0.000000           0.000         0.000       0.137
 ----------------------------------------------------------------------------

         Total DFT energy =       -1.126825885502

                       DFT Final Molecular Orbital Analysis
                       ------------------------------------

 Vector    1  Occ=2.000000D+00  E=-5.983840D-01  Symmetry=a1g

 Vector    2  Occ=0.000000D+00  E= 2.407185D-01  Symmetry=a2u

 Vector    3  Occ=0.000000D+00  E= 7.706756D-01  Symmetry=a1g

 Vector    4  Occ=0.000000D+00  E= 1.415657D+00  Symmetry=a2u

     Multipole analysis of the density
     ---------------------------------

     L   x y z        total         alpha         beta         nuclear
     -   - - -        -----         -----         ----         -------
     0   0 0 0     -0.000000     -1.000000     -1.000000      2.000000

     1   1 0 0      0.000000      0.000000      0.000000      0.000000
     1   0 1 0      0.000000      0.000000      0.000000      0.000000
     1   0 0 1     -0.000000     -0.000000     -0.000000      0.000000

     2   2 0 0     -1.509266     -0.754633     -0.754633      0.000000
     2   1 1 0      0.000000      0.000000      0.000000      0.000000
     2   1 0 1      0.000000      0.000000      0.000000      0.000000
     2   0 2 0     -1.509266     -0.754633     -0.754633      0.000000
     2   0 1 1      0.000000      0.000000      0.000000      0.000000

 Total times  cpu:        0.4s     wall:        0.7s
