         Total DFT energy =     -109.470118217109
@ Step       Energy      Delta E   Gmax     Grms     Xrms     Xmax   Walltime
@ ---- ---------------- -------- -------- -------- -------- -------- --------
@    0    -109.47011822  0.0D+00  0.05438  0.05438  0.00000  0.00000      0.3
         Total DFT energy =     -109.469350367292

 Vector    9  Occ=0.000000D+00  E=-5.320425D-02  Symmetry=eg

 Vector   10  Occ=0.000000D+00  E= 3.895284D-01  Symmetry=a2u

 Vector   11  Occ=0.000000D+00  E= 6.164739D-01  Symmetry=eu

 Vector   12  Occ=0.000000D+00  E= 6.164739D-01  Symmetry=eu

 Vector   13  Occ=0.000000D+00  E= 6.175012D-01  Symmetry=a1g

 Vector   14  Occ=0.000000D+00  E= 7.293720D-01  Symmetry=a1g

 Vector   15  Occ=0.000000D+00  E= 7.399838D-01  Symmetry=eg

 Vector   16  Occ=0.000000D+00  E= 7.399838D-01  Symmetry=eg

 Vector   17  Occ=0.000000D+00  E= 7.894955D-01  Symmetry=a2u

         Total DFT energy =     -109.471039837264

 Vector    1  Occ=2.000000D+00  E=-1.446036D+01  Symmetry=a1g

 Vector    2  Occ=2.000000D+00  E=-1.445908D+01  Symmetry=a2u

 Vector    3  Occ=2.000000D+00  E=-1.165502D+00  Symmetry=a1g

 Vector    4  Occ=2.000000D+00  E=-5.506999D-01  Symmetry=a2u

 Vector    5  Occ=2.000000D+00  E=-4.714528D-01  Symmetry=eu

 Vector    6  Occ=2.000000D+00  E=-4.714528D-01  Symmetry=eu

 Vector    7  Occ=2.000000D+00  E=-4.225881D-01  Symmetry=a1g

 Vector    8  Occ=0.000000D+00  E=-4.170562D-02  Symmetry=eg

 Vector    9  Occ=0.000000D+00  E=-4.170562D-02  Symmetry=eg

 Vector   10  Occ=0.000000D+00  E= 4.059598D-01  Symmetry=a2u

 Vector   11  Occ=0.000000D+00  E= 6.072477D-01  Symmetry=a1g

 Vector   12  Occ=0.000000D+00  E= 6.129712D-01  Symmetry=eu

 Vector   13  Occ=0.000000D+00  E= 6.129712D-01  Symmetry=eu

 Vector   14  Occ=0.000000D+00  E= 7.299322D-01  Symmetry=a1g

 Vector   15  Occ=0.000000D+00  E= 7.444441D-01  Symmetry=eg

 Vector   16  Occ=0.000000D+00  E= 7.444441D-01  Symmetry=eg

 Vector   17  Occ=0.000000D+00  E= 8.234168D-01  Symmetry=a2u

@    1    -109.47103984 -9.2D-04  0.00203  0.00203  0.01042  0.01805      0.7
         Total DFT energy =     -109.471041238177

 Vector    1  Occ=2.000000D+00  E=-1.446023D+01  Symmetry=a1g

 Vector    2  Occ=2.000000D+00  E=-1.445893D+01  Symmetry=a2u

 Vector    3  Occ=2.000000D+00  E=-1.165943D+00  Symmetry=a1g

 Vector    4  Occ=2.000000D+00  E=-5.505005D-01  Symmetry=a2u

 Vector    5  Occ=2.000000D+00  E=-4.716684D-01  Symmetry=eu

 Vector    6  Occ=2.000000D+00  E=-4.716684D-01  Symmetry=eu

 Vector    7  Occ=2.000000D+00  E=-4.226110D-01  Symmetry=a1g

 Vector    8  Occ=0.000000D+00  E=-4.138761D-02  Symmetry=eg

 Vector    9  Occ=0.000000D+00  E=-4.138761D-02  Symmetry=eg

 Vector   10  Occ=0.000000D+00  E= 4.063703D-01  Symmetry=a2u

 Vector   11  Occ=0.000000D+00  E= 6.069766D-01  Symmetry=a1g

 Vector   12  Occ=0.000000D+00  E= 6.128693D-01  Symmetry=eu

 Vector   13  Occ=0.000000D+00  E= 6.128693D-01  Symmetry=eu

 Vector   14  Occ=0.000000D+00  E= 7.299545D-01  Symmetry=a1g

 Vector   15  Occ=0.000000D+00  E= 7.445717D-01  Symmetry=eg

 Vector   16  Occ=0.000000D+00  E= 7.445717D-01  Symmetry=eg

 Vector   17  Occ=0.000000D+00  E= 8.243758D-01  Symmetry=a2u

         Total DFT energy =   -109.471041238177
@    2    -109.47104124 -1.4D-06  0.00013  0.00013  0.00037  0.00065      0.9
@    2    -109.47104124 -1.4D-06  0.00013  0.00013  0.00037  0.00065      0.9

 Output coordinates in angstroms (scale by  1.889725989 to convert to a.u.)

  No.       Tag          Charge          X              Y              Z
 ---- ---------------- ---------- -------------- -------------- --------------
    1 N                    7.0000     0.00000000     0.00000000    -0.55920686
    2 N                    7.0000     0.00000000     0.00000000     0.55920686

         Total DFT energy =     -109.529292520956

 Vector    1  Occ=2.000000D+00  E=-1.446270D+01

 Vector    2  Occ=2.000000D+00  E=-1.446121D+01

 Vector    3  Occ=2.000000D+00  E=-1.127857D+00

 Vector    4  Occ=2.000000D+00  E=-5.677153D-01

 Vector    5  Occ=2.000000D+00  E=-4.689266D-01

 Vector    6  Occ=2.000000D+00  E=-4.689266D-01

 Vector    7  Occ=2.000000D+00  E=-4.386389D-01

 Vector    8  Occ=0.000000D+00  E=-4.720236D-02

 Vector    9  Occ=0.000000D+00  E=-4.720236D-02

 Vector   10  Occ=0.000000D+00  E= 6.338678D-02

 Vector   11  Occ=0.000000D+00  E= 7.909227D-02

 Vector   12  Occ=0.000000D+00  E= 9.279940D-02

 Vector   13  Occ=0.000000D+00  E= 9.279940D-02

 Vector   14  Occ=0.000000D+00  E= 1.407067D-01

 Vector   15  Occ=0.000000D+00  E= 1.725977D-01

 Vector   16  Occ=0.000000D+00  E= 1.725977D-01

 Vector   17  Occ=0.000000D+00  E= 2.589109D-01

 Vector   18  Occ=0.000000D+00  E= 5.023386D-01

 Zero-Point correction to Energy  =    3.342 kcal/mol  (  0.005325 au)
 Thermal correction to Energy     =    4.822 kcal/mol  (  0.007685 au)
 Thermal correction to Enthalpy   =    5.414 kcal/mol  (  0.008629 au)
 Total Entropy                    =   45.812 cal/mol-K
   - Translational                =   35.908 cal/mol-K (mol. weight =  28.0061)
   - Rotational                   =    9.903 cal/mol-K (symmetry #  =        2)
   - Vibrational                  =    0.000 cal/mol-K
   - Translational                  =    2.979 cal/mol-K
   - Rotational                     =    1.986 cal/mol-K
   - Vibrational                    =    0.003 cal/mol-K
 P.Frequency       -0.00        0.00        0.00        0.00        0.00     2338.63

 Normal Eigenvalue ||           Projected Infra Red Intensities
  Mode   [cm**-1]  || [atomic units] [(debye/angs)**2] [(KM/mol)] [arbitrary]
 ------ ---------- || -------------- ----------------- ---------- -----------
    1       -0.000 ||    0.000000           0.000         0.000       0.002
    2        0.000 ||    0.000000           0.000         0.000      15.613
    3        0.000 ||    0.000000           0.000         0.000      14.062
    4        0.000 ||    0.000000           0.000         0.000      15.530
    5        0.000 ||    0.000000           0.000         0.000      14.053
    6     2338.632 ||    0.000000           0.000         0.000       0.740
 ----------------------------------------------------------------------------

         Total DFT energy =     -109.559412132295

                       DFT Final Molecular Orbital Analysis
                       ------------------------------------

 Vector    1  Occ=2.000000D+00  E=-1.443462D+01  Symmetry=a1g

 Vector    2  Occ=2.000000D+00  E=-1.443310D+01  Symmetry=a2u

 Vector    3  Occ=2.000000D+00  E=-1.127314D+00  Symmetry=a1g

 Vector    4  Occ=2.000000D+00  E=-5.669000D-01  Symmetry=a2u

 Vector    5  Occ=2.000000D+00  E=-4.697654D-01  Symmetry=eu

 Vector    6  Occ=2.000000D+00  E=-4.697654D-01  Symmetry=eu

 Vector    7  Occ=2.000000D+00  E=-4.399740D-01  Symmetry=a1g

 Vector    8  Occ=0.000000D+00  E=-4.797295D-02  Symmetry=eg

 Vector    9  Occ=0.000000D+00  E=-4.797295D-02  Symmetry=eg

 Vector   10  Occ=0.000000D+00  E= 6.169026D-02  Symmetry=a1g

 Vector   11  Occ=0.000000D+00  E= 7.961296D-02  Symmetry=a2u

 Vector   12  Occ=0.000000D+00  E= 9.114505D-02  Symmetry=eu

 Vector   13  Occ=0.000000D+00  E= 9.114505D-02  Symmetry=eu

 Vector   14  Occ=0.000000D+00  E= 1.404052D-01  Symmetry=a1g

 Vector   15  Occ=0.000000D+00  E= 1.707294D-01  Symmetry=eg

 Vector   16  Occ=0.000000D+00  E= 1.707294D-01  Symmetry=eg

 Vector   17  Occ=0.000000D+00  E= 2.570244D-01  Symmetry=a2u

 Vector   18  Occ=0.000000D+00  E= 4.890502D-01  Symmetry=a2u

 Vector   19  Occ=0.000000D+00  E= 6.677542D-01  Symmetry=a1g

     Multipole analysis of the density
     ---------------------------------

     L   x y z        total         alpha         beta         nuclear
     -   - - -        -----         -----         ----         -------
     0   0 0 0     -0.000000     -7.000000     -7.000000     14.000000

     1   1 0 0      0.000000      0.000000      0.000000      0.000000
     1   0 1 0      0.000000      0.000000      0.000000      0.000000
     1   0 0 1     -0.000000     -0.000000     -0.000000      0.000000

     2   2 0 0     -7.725462     -3.862731     -3.862731      0.000000
     2   1 1 0      0.000000      0.000000      0.000000      0.000000
     2   1 0 1      0.000000      0.000000      0.000000      0.000000
     2   0 2 0     -7.725462     -3.862731     -3.862731      0.000000
     2   0 1 1     -0.000000     -0.000000     -0.000000      0.000000

 Total times  cpu:       11.5s     wall:       12.0s
