         Total DFT energy =     -109.529704533070
@ Step       Energy      Delta E   Gmax     Grms     Xrms     Xmax   Walltime
@ ---- ---------------- -------- -------- -------- -------- -------- --------
@    0    -109.52970453  0.0D+00  0.01573  0.01573  0.00000  0.00000      0.5
         Total DFT energy =     -109.529610855109

 Vector   11  Occ=0.000000D+00  E= 7.924799D-02  Symmetry=a2u

 Vector   12  Occ=0.000000D+00  E= 9.267538D-02  Symmetry=eu

 Vector   13  Occ=0.000000D+00  E= 9.267538D-02  Symmetry=eu

 Vector   14  Occ=0.000000D+00  E= 1.407843D-01  Symmetry=a1g

 Vector   15  Occ=0.000000D+00  E= 1.730281D-01  Symmetry=eg

 Vector   16  Occ=0.000000D+00  E= 1.730281D-01  Symmetry=eg

 Vector   17  Occ=0.000000D+00  E= 2.590717D-01  Symmetry=a2u

 Vector   18  Occ=0.000000D+00  E= 5.074213D-01  Symmetry=a2u

         Total DFT energy =     -109.529780185487

 Vector    1  Occ=2.000000D+00  E=-1.445963D+01  Symmetry=a1g

 Vector    2  Occ=2.000000D+00  E=-1.445797D+01  Symmetry=a2u

 Vector    3  Occ=2.000000D+00  E=-1.135699D+00  Symmetry=a1g

 Vector    4  Occ=2.000000D+00  E=-5.641209D-01  Symmetry=a2u

 Vector    5  Occ=2.000000D+00  E=-4.729958D-01  Symmetry=eu

 Vector    6  Occ=2.000000D+00  E=-4.729958D-01  Symmetry=eu

 Vector    7  Occ=2.000000D+00  E=-4.391533D-01  Symmetry=a1g

 Vector    8  Occ=0.000000D+00  E=-4.142806D-02  Symmetry=eg

 Vector    9  Occ=0.000000D+00  E=-4.142806D-02  Symmetry=eg

 Vector   10  Occ=0.000000D+00  E= 6.375625D-02  Symmetry=a1g

 Vector   11  Occ=0.000000D+00  E= 7.946128D-02  Symmetry=a2u

 Vector   12  Occ=0.000000D+00  E= 9.249974D-02  Symmetry=eu

 Vector   13  Occ=0.000000D+00  E= 9.249974D-02  Symmetry=eu

 Vector   14  Occ=0.000000D+00  E= 1.408967D-01  Symmetry=a1g

 Vector   15  Occ=0.000000D+00  E= 1.736479D-01  Symmetry=eg

 Vector   16  Occ=0.000000D+00  E= 1.736479D-01  Symmetry=eg

 Vector   17  Occ=0.000000D+00  E= 2.592951D-01  Symmetry=a2u

 Vector   18  Occ=0.000000D+00  E= 5.143445D-01  Symmetry=a2u

@    1    -109.52978019 -7.6D-05  0.00019  0.00019  0.00283  0.00490      1.2
         Total DFT energy =     -109.529780196877

 Vector    1  Occ=2.000000D+00  E=-1.445961D+01  Symmetry=a1g

 Vector    2  Occ=2.000000D+00  E=-1.445795D+01  Symmetry=a2u

 Vector    3  Occ=2.000000D+00  E=-1.135729D+00  Symmetry=a1g

 Vector    4  Occ=2.000000D+00  E=-5.641021D-01  Symmetry=a2u

 Vector    5  Occ=2.000000D+00  E=-4.730108D-01  Symmetry=eu

 Vector    6  Occ=2.000000D+00  E=-4.730108D-01  Symmetry=eu

 Vector    7  Occ=2.000000D+00  E=-4.391533D-01  Symmetry=a1g

 Vector    8  Occ=0.000000D+00  E=-4.139793D-02  Symmetry=eg

 Vector    9  Occ=0.000000D+00  E=-4.139793D-02  Symmetry=eg

 Vector   10  Occ=0.000000D+00  E= 6.375858D-02  Symmetry=a1g

 Vector   11  Occ=0.000000D+00  E= 7.946304D-02  Symmetry=a2u

 Vector   12  Occ=0.000000D+00  E= 9.249918D-02  Symmetry=eu

 Vector   13  Occ=0.000000D+00  E= 9.249918D-02  Symmetry=eu

 Vector   14  Occ=0.000000D+00  E= 1.408982D-01  Symmetry=a1g

 Vector   15  Occ=0.000000D+00  E= 1.736537D-01  Symmetry=eg

 Vector   16  Occ=0.000000D+00  E= 1.736537D-01  Symmetry=eg

 Vector   17  Occ=0.000000D+00  E= 2.592973D-01  Symmetry=a2u

 Vector   18  Occ=0.000000D+00  E= 5.144008D-01  Symmetry=a2u

         Total DFT energy =   -109.529780196877
@    2    -109.52978020 -1.1D-08  0.00001  0.00001  0.00003  0.00006      1.6
@    2    -109.52978020 -1.1D-08  0.00001  0.00001  0.00003  0.00006      1.6

 Output coordinates in angstroms (scale by  1.889725989 to convert to a.u.)

  No.       Tag          Charge          X              Y              Z
 ---- ---------------- ---------- -------------- -------------- --------------
    1 N                    7.0000     0.00000000     0.00000000    -0.55256155
    2 N                    7.0000     0.00000000     0.00000000     0.55256155

         Total DFT energy =     -109.529780338696

 Vector    1  Occ=2.000000D+00  E=-1.445961D+01

 Vector    2  Occ=2.000000D+00  E=-1.445796D+01

 Vector    3  Occ=2.000000D+00  E=-1.135734D+00

 Vector    4  Occ=2.000000D+00  E=-5.641051D-01

 Vector    5  Occ=2.000000D+00  E=-4.730145D-01

 Vector    6  Occ=2.000000D+00  E=-4.730145D-01

 Vector    7  Occ=2.000000D+00  E=-4.391566D-01

 Vector    8  Occ=0.000000D+00  E=-4.140098D-02

 Vector    9  Occ=0.000000D+00  E=-4.140098D-02

 Vector   10  Occ=0.000000D+00  E= 6.375777D-02

 Vector   11  Occ=0.000000D+00  E= 7.946239D-02

 Vector   12  Occ=0.000000D+00  E= 9.249822D-02

 Vector   13  Occ=0.000000D+00  E= 9.249822D-02

 Vector   14  Occ=0.000000D+00  E= 1.408974D-01

 Vector   15  Occ=0.000000D+00  E= 1.736525D-01

 Vector   16  Occ=0.000000D+00  E= 1.736525D-01

 Vector   17  Occ=0.000000D+00  E= 2.592958D-01

 Vector   18  Occ=0.000000D+00  E= 5.143986D-01

 Zero-Point correction to Energy  =    3.507 kcal/mol  (  0.005589 au)
 Thermal correction to Energy     =    4.987 kcal/mol  (  0.007948 au)
 Thermal correction to Enthalpy   =    5.580 kcal/mol  (  0.008892 au)
 Total Entropy                    =   45.764 cal/mol-K
   - Translational                =   35.908 cal/mol-K (mol. weight =  28.0061)
   - Rotational                   =    9.856 cal/mol-K (symmetry #  =        2)
   - Vibrational                  =    0.000 cal/mol-K
   - Translational                  =    2.979 cal/mol-K
   - Rotational                     =    1.986 cal/mol-K
   - Vibrational                    =    0.002 cal/mol-K
 P.Frequency       -0.00        0.00        0.00        0.00        0.00     2454.28

 Normal Eigenvalue ||           Projected Infra Red Intensities
  Mode   [cm**-1]  || [atomic units] [(debye/angs)**2] [(KM/mol)] [arbitrary]
 ------ ---------- || -------------- ----------------- ---------- -----------
    1       -0.000 ||    0.000000           0.000         0.000       0.009
    2        0.000 ||    0.000000           0.000         0.000       3.447
    3        0.000 ||    0.000000           0.000         0.000       3.646
    4        0.000 ||    0.000000           0.000         0.000       3.576
    5        0.000 ||    0.000000           0.000         0.000       3.459
    6     2454.280 ||    0.000000           0.000         0.000      45.863
 ----------------------------------------------------------------------------

         Total DFT energy =     -109.529780338163

                       DFT Final Molecular Orbital Analysis
                       ------------------------------------

 Vector    1  Occ=2.000000D+00  E=-1.445961D+01  Symmetry=a1g

 Vector    2  Occ=2.000000D+00  E=-1.445796D+01  Symmetry=a2u

 Vector    3  Occ=2.000000D+00  E=-1.135734D+00  Symmetry=a1g

 Vector    4  Occ=2.000000D+00  E=-5.641051D-01  Symmetry=a2u

 Vector    5  Occ=2.000000D+00  E=-4.730145D-01  Symmetry=eu

 Vector    6  Occ=2.000000D+00  E=-4.730145D-01  Symmetry=eu

 Vector    7  Occ=2.000000D+00  E=-4.391566D-01  Symmetry=a1g

 Vector    8  Occ=0.000000D+00  E=-4.140099D-02  Symmetry=eg

 Vector    9  Occ=0.000000D+00  E=-4.140099D-02  Symmetry=eg

 Vector   10  Occ=0.000000D+00  E= 6.375777D-02  Symmetry=a1g

 Vector   11  Occ=0.000000D+00  E= 7.946291D-02  Symmetry=a2u

 Vector   12  Occ=0.000000D+00  E= 9.249821D-02  Symmetry=eu

 Vector   13  Occ=0.000000D+00  E= 9.249821D-02  Symmetry=eu

 Vector   14  Occ=0.000000D+00  E= 1.408974D-01  Symmetry=a1g

 Vector   15  Occ=0.000000D+00  E= 1.736525D-01  Symmetry=eg

 Vector   16  Occ=0.000000D+00  E= 1.736525D-01  Symmetry=eg

 Vector   17  Occ=0.000000D+00  E= 2.593015D-01  Symmetry=a2u

 Vector   18  Occ=0.000000D+00  E= 5.143987D-01  Symmetry=a2u

     Multipole analysis of the density
     ---------------------------------

     L   x y z        total         alpha         beta         nuclear
     -   - - -        -----         -----         ----         -------
     0   0 0 0     -0.000000     -7.000000     -7.000000     14.000000

     1   1 0 0      0.000000      0.000000      0.000000      0.000000
     1   0 1 0      0.000000      0.000000      0.000000      0.000000
     1   0 0 1      0.000000      0.000000      0.000000      0.000000

     2   2 0 0     -7.707351     -3.853675     -3.853675      0.000000
     2   1 1 0      0.000000      0.000000      0.000000      0.000000
     2   1 0 1      0.000000      0.000000      0.000000      0.000000
     2   0 2 0     -7.707351     -3.853675     -3.853675      0.000000
     2   0 1 1      0.000000      0.000000      0.000000      0.000000

 Total times  cpu:       11.2s     wall:       11.8s
