         Total DFT energy =     -108.958872016689
@ Step       Energy      Delta E   Gmax     Grms     Xrms     Xmax   Walltime
@ ---- ---------------- -------- -------- -------- -------- -------- --------
@    0    -108.95887202  0.0D+00  0.07861  0.07861  0.00000  0.00000      0.5
         Total DFT energy =     -108.957830626225
         Total DFT energy =     -108.960848153710

 Vector   14  Occ=0.000000D+00  E= 1.360919D-01  Symmetry=a1g

 Vector   15  Occ=0.000000D+00  E= 1.635246D-01  Symmetry=eg

 Vector   16  Occ=0.000000D+00  E= 1.635246D-01  Symmetry=eg

 Vector   17  Occ=0.000000D+00  E= 2.530283D-01  Symmetry=a2u

 Vector   18  Occ=0.000000D+00  E= 4.822997D-01  Symmetry=a2u

 Vector   19  Occ=0.000000D+00  E= 7.493777D-01  Symmetry=a1g

@    1    -108.96084815 -2.0D-03  0.00380  0.00380  0.01586  0.02747      1.3
         Total DFT energy =     -108.960853440100

 Vector    1  Occ=2.000000D+00  E=-1.410443D+01  Symmetry=a1g

 Vector    2  Occ=2.000000D+00  E=-1.410347D+01  Symmetry=a2u

 Vector    3  Occ=2.000000D+00  E=-9.893011D-01  Symmetry=a1g

 Vector    4  Occ=2.000000D+00  E=-4.692046D-01  Symmetry=a2u

 Vector    5  Occ=2.000000D+00  E=-3.829202D-01  Symmetry=eu

 Vector    6  Occ=2.000000D+00  E=-3.829202D-01  Symmetry=eu

 Vector    7  Occ=2.000000D+00  E=-3.438854D-01  Symmetry=a1g

 Vector    8  Occ=0.000000D+00  E=-5.334887D-02  Symmetry=eg

 Vector    9  Occ=0.000000D+00  E=-5.334887D-02  Symmetry=eg

 Vector   10  Occ=0.000000D+00  E= 5.817826D-02  Symmetry=a1g

 Vector   11  Occ=0.000000D+00  E= 7.336946D-02  Symmetry=a2u

 Vector   12  Occ=0.000000D+00  E= 8.636188D-02  Symmetry=eu

 Vector   13  Occ=0.000000D+00  E= 8.636188D-02  Symmetry=eu

 Vector   14  Occ=0.000000D+00  E= 1.361065D-01  Symmetry=a1g

 Vector   15  Occ=0.000000D+00  E= 1.636178D-01  Symmetry=eg

 Vector   16  Occ=0.000000D+00  E= 1.636178D-01  Symmetry=eg

 Vector   17  Occ=0.000000D+00  E= 2.530660D-01  Symmetry=a2u

 Vector   18  Occ=0.000000D+00  E= 4.836378D-01  Symmetry=a2u

 Vector   19  Occ=0.000000D+00  E= 7.489452D-01  Symmetry=a1g

         Total DFT energy =     -108.960853490146

 Vector    1  Occ=2.000000D+00  E=-1.410440D+01  Symmetry=a1g

 Vector    2  Occ=2.000000D+00  E=-1.410344D+01  Symmetry=a2u

 Vector    3  Occ=2.000000D+00  E=-9.893817D-01  Symmetry=a1g

 Vector    4  Occ=2.000000D+00  E=-4.691677D-01  Symmetry=a2u

 Vector    5  Occ=2.000000D+00  E=-3.829596D-01  Symmetry=eu

 Vector    6  Occ=2.000000D+00  E=-3.829596D-01  Symmetry=eu

 Vector    7  Occ=2.000000D+00  E=-3.438899D-01  Symmetry=a1g

 Vector    8  Occ=0.000000D+00  E=-5.328902D-02  Symmetry=eg

 Vector    9  Occ=0.000000D+00  E=-5.328902D-02  Symmetry=eg

 Vector   10  Occ=0.000000D+00  E= 5.818181D-02  Symmetry=a1g

 Vector   11  Occ=0.000000D+00  E= 7.337345D-02  Symmetry=a2u

 Vector   12  Occ=0.000000D+00  E= 8.635874D-02  Symmetry=eu

 Vector   13  Occ=0.000000D+00  E= 8.635874D-02  Symmetry=eu

 Vector   14  Occ=0.000000D+00  E= 1.361081D-01  Symmetry=a1g

 Vector   15  Occ=0.000000D+00  E= 1.636280D-01  Symmetry=eg

 Vector   16  Occ=0.000000D+00  E= 1.636280D-01  Symmetry=eg

 Vector   17  Occ=0.000000D+00  E= 2.530701D-01  Symmetry=a2u

 Vector   18  Occ=0.000000D+00  E= 4.837839D-01  Symmetry=a2u

 Vector   19  Occ=0.000000D+00  E= 7.488977D-01  Symmetry=a1g

@    2    -108.96085349 -5.3D-06  0.00001  0.00001  0.00081  0.00141      2.0
@    2    -108.96085349 -5.3D-06  0.00001  0.00001  0.00081  0.00141      2.0

 Output coordinates in angstroms (scale by  1.889725989 to convert to a.u.)

  No.       Tag          Charge          X              Y              Z
 ---- ---------------- ---------- -------------- -------------- --------------
    1 N                    7.0000     0.00000000     0.00000000    -0.56379487
    2 N                    7.0000     0.00000000     0.00000000     0.56379487

         Total DFT energy =     -108.960853763976

 Vector    1  Occ=2.000000D+00  E=-1.410440D+01

 Vector    2  Occ=2.000000D+00  E=-1.410344D+01

 Vector    3  Occ=2.000000D+00  E=-9.893818D-01

 Vector    4  Occ=2.000000D+00  E=-4.691675D-01

 Vector    5  Occ=2.000000D+00  E=-3.829594D-01

 Vector    6  Occ=2.000000D+00  E=-3.829594D-01

 Vector    7  Occ=2.000000D+00  E=-3.438894D-01

 Vector    8  Occ=0.000000D+00  E=-5.328874D-02

 Vector    9  Occ=0.000000D+00  E=-5.328874D-02

 Vector   10  Occ=0.000000D+00  E= 5.818196D-02

 Vector   11  Occ=0.000000D+00  E= 7.337360D-02

 Vector   12  Occ=0.000000D+00  E= 8.635873D-02

 Vector   13  Occ=0.000000D+00  E= 8.635873D-02

 Vector   14  Occ=0.000000D+00  E= 1.361081D-01

 Vector   15  Occ=0.000000D+00  E= 1.636281D-01

 Vector   16  Occ=0.000000D+00  E= 1.636281D-01

 Vector   17  Occ=0.000000D+00  E= 2.530703D-01

 Vector   18  Occ=0.000000D+00  E= 4.837841D-01

 Vector   19  Occ=0.000000D+00  E= 7.488980D-01

 Zero-Point correction to Energy  =    3.239 kcal/mol  (  0.005162 au)
 Thermal correction to Energy     =    4.720 kcal/mol  (  0.007521 au)
 Thermal correction to Enthalpy   =    5.312 kcal/mol  (  0.008465 au)
 Total Entropy                    =   45.845 cal/mol-K
   - Translational                =   35.908 cal/mol-K (mol. weight =  28.0061)
   - Rotational                   =    9.936 cal/mol-K (symmetry #  =        2)
   - Vibrational                  =    0.000 cal/mol-K
   - Translational                  =    2.979 cal/mol-K
   - Rotational                     =    1.986 cal/mol-K
   - Vibrational                    =    0.004 cal/mol-K
 P.Frequency        0.00        0.00        0.00        0.00        0.00     2266.75

 Normal Eigenvalue ||           Projected Infra Red Intensities
  Mode   [cm**-1]  || [atomic units] [(debye/angs)**2] [(KM/mol)] [arbitrary]
 ------ ---------- || -------------- ----------------- ---------- -----------
    1        0.000 ||    0.000000           0.000         0.000      11.712
    2        0.000 ||    0.000000           0.000         0.000       5.285
    3        0.000 ||    0.000000           0.000         0.000      11.651
    4        0.000 ||    0.000000           0.000         0.000       5.368
    5        0.000 ||    0.000000           0.000         0.000       0.002
    6     2266.748 ||    0.000000           0.000         0.000      25.981
 ----------------------------------------------------------------------------

         Total DFT energy =     -108.938110264642

                       DFT Final Molecular Orbital Analysis
                       ------------------------------------

 Vector    1  Occ=2.000000D+00  E=-1.406738D+01  Symmetry=a1g

 Vector    2  Occ=2.000000D+00  E=-1.406647D+01  Symmetry=a2u

 Vector    3  Occ=2.000000D+00  E=-1.022219D+00  Symmetry=a1g

 Vector    4  Occ=2.000000D+00  E=-4.500897D-01  Symmetry=a2u

 Vector    5  Occ=2.000000D+00  E=-3.840961D-01  Symmetry=eu

 Vector    6  Occ=2.000000D+00  E=-3.840961D-01  Symmetry=eu

 Vector    7  Occ=2.000000D+00  E=-3.264597D-01  Symmetry=a1g

 Vector    8  Occ=0.000000D+00  E=-4.608875D-02  Symmetry=eg

 Vector    9  Occ=0.000000D+00  E=-4.608875D-02  Symmetry=eg

 Vector   10  Occ=0.000000D+00  E= 3.741470D-01  Symmetry=a2u

 Vector   11  Occ=0.000000D+00  E= 5.022913D-01  Symmetry=eu

 Vector   12  Occ=0.000000D+00  E= 5.022913D-01  Symmetry=eu

 Vector   13  Occ=0.000000D+00  E= 5.114971D-01  Symmetry=a1g

 Vector   14  Occ=0.000000D+00  E= 5.979866D-01  Symmetry=a1g

 Vector   15  Occ=0.000000D+00  E= 6.380832D-01  Symmetry=eg

 Vector   16  Occ=0.000000D+00  E= 6.380832D-01  Symmetry=eg

 Vector   17  Occ=0.000000D+00  E= 7.017780D-01  Symmetry=a2u

     Multipole analysis of the density
     ---------------------------------

     L   x y z        total         alpha         beta         nuclear
     -   - - -        -----         -----         ----         -------
     0   0 0 0     -0.000000     -7.000000     -7.000000     14.000000

     1   1 0 0      0.000000      0.000000      0.000000      0.000000
     1   0 1 0     -0.000000     -0.000000     -0.000000      0.000000
     1   0 0 1      0.000000      0.000000      0.000000      0.000000

     2   2 0 0     -7.594310     -3.797155     -3.797155      0.000000
     2   1 1 0     -0.000000     -0.000000     -0.000000      0.000000
     2   1 0 1     -0.000000     -0.000000     -0.000000      0.000000
     2   0 2 0     -7.594310     -3.797155     -3.797155      0.000000
     2   0 1 1      0.000000      0.000000      0.000000      0.000000

 Total times  cpu:       11.0s     wall:       11.6s
