         Total DFT energy =     -108.945405231463
@ Step       Energy      Delta E   Gmax     Grms     Xrms     Xmax   Walltime
@ ---- ---------------- -------- -------- -------- -------- -------- --------
@    0    -108.94540523  0.0D+00  0.07678  0.07678  0.00000  0.00000      0.4
         Total DFT energy =     -108.940338254404
         Total DFT energy =     -108.947015926571

 Vector   11  Occ=0.000000D+00  E= 1.464795D-01  Symmetry=a1g

 Vector   12  Occ=0.000000D+00  E= 1.677892D-01  Symmetry=eu

 Vector   13  Occ=0.000000D+00  E= 1.677892D-01  Symmetry=eu

 Vector   14  Occ=0.000000D+00  E= 2.209550D-01  Symmetry=a1g

 Vector   15  Occ=0.000000D+00  E= 2.800553D-01  Symmetry=eg

 Vector   16  Occ=0.000000D+00  E= 2.800553D-01  Symmetry=eg

 Vector   17  Occ=0.000000D+00  E= 3.343860D-01  Symmetry=a2u

 Vector   18  Occ=0.000000D+00  E= 7.190566D-01  Symmetry=a2u

@    1    -108.94701593 -1.6D-03  0.00574  0.00574  0.01105  0.01914      1.0
         Total DFT energy =     -108.947024155871

 Vector    1  Occ=2.000000D+00  E=-1.569752D+01  Symmetry=a1g

 Vector    2  Occ=2.000000D+00  E=-1.569368D+01  Symmetry=a2u

 Vector    3  Occ=2.000000D+00  E=-1.494836D+00  Symmetry=a1g

 Vector    4  Occ=2.000000D+00  E=-7.745144D-01  Symmetry=a2u

 Vector    5  Occ=2.000000D+00  E=-6.363386D-01  Symmetry=a1g

 Vector    6  Occ=2.000000D+00  E=-6.254110D-01  Symmetry=eu

 Vector    7  Occ=2.000000D+00  E=-6.254110D-01  Symmetry=eu

 Vector    8  Occ=0.000000D+00  E= 1.347102D-01  Symmetry=eg

 Vector    9  Occ=0.000000D+00  E= 1.347102D-01  Symmetry=eg

 Vector   10  Occ=0.000000D+00  E= 1.430718D-01  Symmetry=a2u

 Vector   11  Occ=0.000000D+00  E= 1.465101D-01  Symmetry=a1g

 Vector   12  Occ=0.000000D+00  E= 1.677368D-01  Symmetry=eu

 Vector   13  Occ=0.000000D+00  E= 1.677368D-01  Symmetry=eu

 Vector   14  Occ=0.000000D+00  E= 2.209863D-01  Symmetry=a1g

 Vector   15  Occ=0.000000D+00  E= 2.805016D-01  Symmetry=eg

 Vector   16  Occ=0.000000D+00  E= 2.805016D-01  Symmetry=eg

 Vector   17  Occ=0.000000D+00  E= 3.344206D-01  Symmetry=a2u

 Vector   18  Occ=0.000000D+00  E= 7.200032D-01  Symmetry=a2u

         Total DFT energy =   -108.947024155871
@    2    -108.94702416 -8.2D-06  0.00044  0.00044  0.00089  0.00155      1.4
         Total DFT energy =     -108.947024203606

 Vector    1  Occ=2.000000D+00  E=-1.569756D+01  Symmetry=a1g

 Vector    2  Occ=2.000000D+00  E=-1.569373D+01  Symmetry=a2u

 Vector    3  Occ=2.000000D+00  E=-1.494754D+00  Symmetry=a1g

 Vector    4  Occ=2.000000D+00  E=-7.745547D-01  Symmetry=a2u

 Vector    5  Occ=2.000000D+00  E=-6.363330D-01  Symmetry=a1g

 Vector    6  Occ=2.000000D+00  E=-6.253647D-01  Symmetry=eu

 Vector    7  Occ=2.000000D+00  E=-6.253647D-01  Symmetry=eu

 Vector    8  Occ=0.000000D+00  E= 1.346709D-01  Symmetry=eg

 Vector    9  Occ=0.000000D+00  E= 1.346709D-01  Symmetry=eg

 Vector   10  Occ=0.000000D+00  E= 1.430706D-01  Symmetry=a2u

 Vector   11  Occ=0.000000D+00  E= 1.465081D-01  Symmetry=a1g

 Vector   12  Occ=0.000000D+00  E= 1.677398D-01  Symmetry=eu

 Vector   13  Occ=0.000000D+00  E= 1.677398D-01  Symmetry=eu

 Vector   14  Occ=0.000000D+00  E= 2.209837D-01  Symmetry=a1g

 Vector   15  Occ=0.000000D+00  E= 2.804677D-01  Symmetry=eg

 Vector   16  Occ=0.000000D+00  E= 2.804677D-01  Symmetry=eg

 Vector   17  Occ=0.000000D+00  E= 3.344180D-01  Symmetry=a2u

 Vector   18  Occ=0.000000D+00  E= 7.199352D-01  Symmetry=a2u

         Total DFT energy =   -108.947024203606
@    3    -108.94702420 -4.8D-08  0.00000  0.00000  0.00006  0.00011      1.7
@    3    -108.94702420 -4.8D-08  0.00000  0.00000  0.00006  0.00011      1.7

 Output coordinates in angstroms (scale by  1.889725989 to convert to a.u.)

  No.       Tag          Charge          X              Y              Z
 ---- ---------------- ---------- -------------- -------------- --------------
    1 N                    7.0000     0.00000000     0.00000000    -0.53911278
    2 N                    7.0000     0.00000000     0.00000000     0.53911278

         Total DFT energy =     -108.947024204347

 Vector    1  Occ=2.000000D+00  E=-1.569756D+01

 Vector    2  Occ=2.000000D+00  E=-1.569372D+01

 Vector    3  Occ=2.000000D+00  E=-1.494749D+00

 Vector    4  Occ=2.000000D+00  E=-7.745535D-01

 Vector    5  Occ=2.000000D+00  E=-6.363298D-01

 Vector    6  Occ=2.000000D+00  E=-6.253602D-01

 Vector    7  Occ=2.000000D+00  E=-6.253602D-01

 Vector    8  Occ=0.000000D+00  E= 1.346726D-01

 Vector    9  Occ=0.000000D+00  E= 1.346726D-01

 Vector   10  Occ=0.000000D+00  E= 1.430703D-01

 Vector   11  Occ=0.000000D+00  E= 1.465080D-01

 Vector   12  Occ=0.000000D+00  E= 1.677404D-01

 Vector   13  Occ=0.000000D+00  E= 1.677404D-01

 Vector   14  Occ=0.000000D+00  E= 2.209840D-01

 Vector   15  Occ=0.000000D+00  E= 2.804694D-01

 Vector   16  Occ=0.000000D+00  E= 2.804694D-01

 Vector   17  Occ=0.000000D+00  E= 3.344181D-01

 Vector   18  Occ=0.000000D+00  E= 7.199359D-01

 Zero-Point correction to Energy  =    3.934 kcal/mol  (  0.006269 au)
 Thermal correction to Energy     =    5.414 kcal/mol  (  0.008628 au)
 Thermal correction to Enthalpy   =    6.006 kcal/mol  (  0.009572 au)
 Total Entropy                    =   45.666 cal/mol-K
   - Translational                =   35.908 cal/mol-K (mol. weight =  28.0061)
   - Rotational                   =    9.758 cal/mol-K (symmetry #  =        2)
   - Vibrational                  =    0.000 cal/mol-K
   - Translational                  =    2.979 cal/mol-K
   - Rotational                     =    1.986 cal/mol-K
   - Vibrational                    =    0.001 cal/mol-K
 P.Frequency       -0.00        0.00        0.00        0.00        0.00     2752.93

 Normal Eigenvalue ||           Projected Infra Red Intensities
  Mode   [cm**-1]  || [atomic units] [(debye/angs)**2] [(KM/mol)] [arbitrary]
 ------ ---------- || -------------- ----------------- ---------- -----------
    1       -0.000 ||    0.000000           0.000         0.000       0.247
    2        0.000 ||    0.000000           0.000         0.000       0.771
    3        0.000 ||    0.000000           0.000         0.000       0.291
    4        0.000 ||    0.000000           0.000         0.000       1.078
    5        0.000 ||    0.000000           0.000         0.000       0.243
    6     2752.928 ||    0.000000           0.000         0.000      57.369
 ----------------------------------------------------------------------------

         Total DFT energy =     -108.973909760154

                       DFT Final Molecular Orbital Analysis
                       ------------------------------------

 Vector    1  Occ=2.000000D+00  E=-1.568235D+01  Symmetry=a1g

 Vector    2  Occ=2.000000D+00  E=-1.567838D+01  Symmetry=a2u

 Vector    3  Occ=2.000000D+00  E=-1.493078D+00  Symmetry=a1g

 Vector    4  Occ=2.000000D+00  E=-7.739028D-01  Symmetry=a2u

 Vector    5  Occ=2.000000D+00  E=-6.373929D-01  Symmetry=a1g

 Vector    6  Occ=2.000000D+00  E=-6.249379D-01  Symmetry=eu

 Vector    7  Occ=2.000000D+00  E=-6.249379D-01  Symmetry=eu

 Vector    8  Occ=0.000000D+00  E= 1.345657D-01  Symmetry=eg

 Vector    9  Occ=0.000000D+00  E= 1.345657D-01  Symmetry=eg

 Vector   10  Occ=0.000000D+00  E= 1.426538D-01  Symmetry=a2u

 Vector   11  Occ=0.000000D+00  E= 1.428578D-01  Symmetry=a1g

 Vector   12  Occ=0.000000D+00  E= 1.637523D-01  Symmetry=eu

 Vector   13  Occ=0.000000D+00  E= 1.637523D-01  Symmetry=eu

 Vector   14  Occ=0.000000D+00  E= 2.184186D-01  Symmetry=a1g

 Vector   15  Occ=0.000000D+00  E= 2.753176D-01  Symmetry=eg

 Vector   16  Occ=0.000000D+00  E= 2.753176D-01  Symmetry=eg

 Vector   17  Occ=0.000000D+00  E= 3.294861D-01  Symmetry=a2u

 Vector   18  Occ=0.000000D+00  E= 6.971278D-01  Symmetry=a2u

     Multipole analysis of the density
     ---------------------------------

     L   x y z        total         alpha         beta         nuclear
     -   - - -        -----         -----         ----         -------
     0   0 0 0     -0.000000     -7.000000     -7.000000     14.000000

     1   1 0 0      0.000000      0.000000      0.000000      0.000000
     1   0 1 0     -0.000000     -0.000000     -0.000000      0.000000
     1   0 0 1      0.000000      0.000000      0.000000      0.000000

     2   2 0 0     -7.664773     -3.832386     -3.832386      0.000000
     2   1 1 0     -0.000000     -0.000000     -0.000000      0.000000
     2   1 0 1      0.000000      0.000000      0.000000      0.000000
     2   0 2 0     -7.664773     -3.832386     -3.832386      0.000000
     2   0 1 1     -0.000000     -0.000000     -0.000000      0.000000

 Total times  cpu:        3.4s     wall:        3.7s
