         Total DFT energy =       -1.175481027771

 Vector    1  Occ=2.000000D+00  E=-4.342360D-01  Symmetry=a1g

 Vector    2  Occ=0.000000D+00  E= 1.004904D-01  Symmetry=a2u

 Vector    3  Occ=0.000000D+00  E= 5.807875D-01  Symmetry=a1g

 Vector    4  Occ=0.000000D+00  E= 1.108858D+00  Symmetry=a2u

@ Step       Energy      Delta E   Gmax     Grms     Xrms     Xmax   Walltime
@ ---- ---------------- -------- -------- -------- -------- -------- --------
@    0      -1.17548103  0.0D+00  0.00100  0.00100  0.00000  0.00000      0.2
         Total DFT energy =       -1.175482137155

 Vector    1  Occ=2.000000D+00  E=-4.338495D-01  Symmetry=a1g

 Vector    2  Occ=0.000000D+00  E= 9.993142D-02  Symmetry=a2u

 Vector    3  Occ=0.000000D+00  E= 5.816122D-01  Symmetry=a1g

 Vector    4  Occ=0.000000D+00  E= 1.106561D+00  Symmetry=a2u

         Total DFT energy =     -1.175482137155
@    1      -1.17548214 -1.1D-06  0.00038  0.00038  0.00105  0.00182      0.3
         Total DFT energy =       -1.175482333060

 Vector    1  Occ=2.000000D+00  E=-4.339570D-01  Symmetry=a1g

 Vector    2  Occ=0.000000D+00  E= 1.000871D-01  Symmetry=a2u

 Vector    3  Occ=0.000000D+00  E= 5.813825D-01  Symmetry=a1g

 Vector    4  Occ=0.000000D+00  E= 1.107199D+00  Symmetry=a2u

         Total DFT energy =     -1.175482333060
@    2      -1.17548233 -2.0D-07  0.00000  0.00000  0.00029  0.00051      0.4
@    2      -1.17548233 -2.0D-07  0.00000  0.00000  0.00029  0.00051      0.4

 Output coordinates in angstroms (scale by  1.889725989 to convert to a.u.)

  No.       Tag          Charge          X              Y              Z
 ---- ---------------- ---------- -------------- -------------- --------------
    1 H                    1.0000     0.00000000     0.00000000    -0.37139547
    2 H                    1.0000     0.00000000     0.00000000     0.37139547

         Total DFT energy =       -1.175482411435

 Vector    1  Occ=2.000000D+00  E=-4.339570D-01

 Vector    2  Occ=0.000000D+00  E= 1.000869D-01

 Vector    3  Occ=0.000000D+00  E= 5.813824D-01

 Vector    4  Occ=0.000000D+00  E= 1.107199D+00

 Zero-Point correction to Energy  =    6.363 kcal/mol  (  0.010140 au)
 Thermal correction to Energy     =    7.844 kcal/mol  (  0.012499 au)
 Thermal correction to Enthalpy   =    8.436 kcal/mol  (  0.013443 au)
 Total Entropy                    =   31.119 cal/mol-K
   - Translational                =   28.068 cal/mol-K (mol. weight =   2.0156)
   - Rotational                   =    3.051 cal/mol-K (symmetry #  =        2)
   - Vibrational                  =    0.000 cal/mol-K
   - Translational                  =    2.979 cal/mol-K
   - Rotational                     =    1.986 cal/mol-K
   - Vibrational                    =    0.000 cal/mol-K
 P.Frequency       -0.00        0.00        0.00        0.00        0.00     4453.09

 Normal Eigenvalue ||           Projected Infra Red Intensities
  Mode   [cm**-1]  || [atomic units] [(debye/angs)**2] [(KM/mol)] [arbitrary]
 ------ ---------- || -------------- ----------------- ---------- -----------
    1       -0.000 ||    0.000000           0.000         0.000      29.999
    2        0.000 ||    0.000000           0.000         0.000       0.000
    3        0.000 ||    0.000000           0.000         0.000       0.000
    4        0.000 ||    0.000000           0.000         0.000       0.000
    5        0.000 ||    0.000000           0.000         0.000      30.001
    6     4453.085 ||    0.000000           0.000         0.000       0.000
 ----------------------------------------------------------------------------

         Total DFT energy =       -1.176631477400

                       DFT Final Molecular Orbital Analysis
                       ------------------------------------

 Vector    1  Occ=2.000000D+00  E=-4.367762D-01  Symmetry=a1g

 Vector    2  Occ=0.000000D+00  E= 5.874617D-02  Symmetry=a2u

 Vector    3  Occ=0.000000D+00  E= 1.962867D-01  Symmetry=a1g

 Vector    4  Occ=0.000000D+00  E= 4.747303D-01  Symmetry=a2u

 Vector    5  Occ=0.000000D+00  E= 2.108574D+00  Symmetry=a1g

 Vector    6  Occ=0.000000D+00  E= 2.384828D+00  Symmetry=a2u

     Multipole analysis of the density
     ---------------------------------

     L   x y z        total         alpha         beta         nuclear
     -   - - -        -----         -----         ----         -------
     0   0 0 0     -0.000000     -1.000000     -1.000000      2.000000

     1   1 0 0      0.000000      0.000000      0.000000      0.000000
     1   0 1 0      0.000000      0.000000      0.000000      0.000000
     1   0 0 1     -0.000000     -0.000000     -0.000000      0.000000

     2   2 0 0     -1.536205     -0.768103     -0.768103      0.000000
     2   1 1 0      0.000000      0.000000      0.000000      0.000000
     2   1 0 1      0.000000      0.000000      0.000000      0.000000
     2   0 2 0     -1.536205     -0.768103     -0.768103      0.000000
     2   0 1 1      0.000000      0.000000      0.000000      0.000000

 Total times  cpu:        1.1s     wall:        1.4s
