         Total DFT energy =      -56.161901104765
@ Step       Energy      Delta E   Gmax     Grms     Xrms     Xmax   Walltime
@ ---- ---------------- -------- -------- -------- -------- -------- --------
@    0     -56.16190110  0.0D+00  0.03274  0.01788  0.00000  0.00000      0.7
         Total DFT energy =      -56.167574133094
         Total DFT energy =      -56.167812532711

 Vector   11  Occ=0.000000D+00  E= 1.775950D-01  Symmetry=e

 Vector   12  Occ=0.000000D+00  E= 2.383160D-01  Symmetry=a1

 Vector   13  Occ=0.000000D+00  E= 8.290971D-01  Symmetry=e

 Vector   14  Occ=0.000000D+00  E= 8.290971D-01  Symmetry=e

 Vector   15  Occ=0.000000D+00  E= 8.613917D-01  Symmetry=a1

@    1     -56.16781253 -5.9D-03  0.00196  0.00107  0.06630  0.12458      1.6
         Total DFT energy =      -56.167830471385

 Vector    1  Occ=2.000000D+00  E=-1.398722D+01  Symmetry=a1

 Vector    2  Occ=2.000000D+00  E=-7.390476D-01  Symmetry=a1

 Vector    3  Occ=2.000000D+00  E=-3.806577D-01  Symmetry=e

 Vector    4  Occ=2.000000D+00  E=-3.806577D-01  Symmetry=e

 Vector    5  Occ=2.000000D+00  E=-1.916888D-01  Symmetry=a1

 Vector    6  Occ=0.000000D+00  E= 8.083440D-03  Symmetry=a1

 Vector    7  Occ=0.000000D+00  E= 8.139616D-02  Symmetry=e

 Vector    8  Occ=0.000000D+00  E= 8.139616D-02  Symmetry=e

 Vector    9  Occ=0.000000D+00  E= 1.115139D-01  Symmetry=a1

 Vector   10  Occ=0.000000D+00  E= 1.766380D-01  Symmetry=e

 Vector   11  Occ=0.000000D+00  E= 1.766380D-01  Symmetry=e

 Vector   12  Occ=0.000000D+00  E= 2.365982D-01  Symmetry=a1

 Vector   13  Occ=0.000000D+00  E= 8.291694D-01  Symmetry=e

 Vector   14  Occ=0.000000D+00  E= 8.291694D-01  Symmetry=e

 Vector   15  Occ=0.000000D+00  E= 8.609210D-01  Symmetry=a1

         Total DFT energy =      -56.167830688995

 Vector    1  Occ=2.000000D+00  E=-1.398714D+01  Symmetry=a1

 Vector    2  Occ=2.000000D+00  E=-7.391762D-01  Symmetry=a1

 Vector    3  Occ=2.000000D+00  E=-3.806978D-01  Symmetry=e

 Vector    4  Occ=2.000000D+00  E=-3.806978D-01  Symmetry=e

 Vector    5  Occ=2.000000D+00  E=-1.917293D-01  Symmetry=a1

 Vector    6  Occ=0.000000D+00  E= 8.096666D-03  Symmetry=a1

 Vector    7  Occ=0.000000D+00  E= 8.141132D-02  Symmetry=e

 Vector    8  Occ=0.000000D+00  E= 8.141132D-02  Symmetry=e

 Vector    9  Occ=0.000000D+00  E= 1.115231D-01  Symmetry=a1

 Vector   10  Occ=0.000000D+00  E= 1.767368D-01  Symmetry=e

 Vector   11  Occ=0.000000D+00  E= 1.767368D-01  Symmetry=e

 Vector   12  Occ=0.000000D+00  E= 2.367738D-01  Symmetry=a1

 Vector   13  Occ=0.000000D+00  E= 8.291683D-01  Symmetry=e

 Vector   14  Occ=0.000000D+00  E= 8.291683D-01  Symmetry=e

 Vector   15  Occ=0.000000D+00  E= 8.609704D-01  Symmetry=a1

@    2     -56.16783069 -1.8D-05  0.00028  0.00009  0.00332  0.00626      2.4
         Total DFT energy =      -56.167830964019

 Vector    1  Occ=2.000000D+00  E=-1.398706D+01  Symmetry=a1

 Vector    2  Occ=2.000000D+00  E=-7.391390D-01  Symmetry=a1

 Vector    3  Occ=2.000000D+00  E=-3.808265D-01  Symmetry=e

 Vector    4  Occ=2.000000D+00  E=-3.808265D-01  Symmetry=e

 Vector    5  Occ=2.000000D+00  E=-1.915703D-01  Symmetry=a1

 Vector    6  Occ=0.000000D+00  E= 8.162920D-03  Symmetry=a1

 Vector    7  Occ=0.000000D+00  E= 8.138706D-02  Symmetry=e

 Vector    8  Occ=0.000000D+00  E= 8.138706D-02  Symmetry=e

 Vector    9  Occ=0.000000D+00  E= 1.115211D-01  Symmetry=a1

 Vector   10  Occ=0.000000D+00  E= 1.768707D-01  Symmetry=e

 Vector   11  Occ=0.000000D+00  E= 1.768707D-01  Symmetry=e

 Vector   12  Occ=0.000000D+00  E= 2.366253D-01  Symmetry=a1

 Vector   13  Occ=0.000000D+00  E= 8.291390D-01  Symmetry=e

 Vector   14  Occ=0.000000D+00  E= 8.291390D-01  Symmetry=e

 Vector   15  Occ=0.000000D+00  E= 8.608620D-01  Symmetry=a1

         Total DFT energy =    -56.167830964019
@    3     -56.16783096 -2.8D-07  0.00001  0.00000  0.00056  0.00155      2.9
@    3     -56.16783096 -2.8D-07  0.00001  0.00000  0.00056  0.00155      2.9

 Output coordinates in angstroms (scale by  1.889725989 to convert to a.u.)

  No.       Tag          Charge          X              Y              Z
 ---- ---------------- ---------- -------------- -------------- --------------
    1 N                    7.0000    -0.00000000     0.00000000     0.13144825
    2 H                    1.0000     0.68117247     0.68117247    -0.26179087
    3 H                    1.0000     0.24932643    -0.93049890    -0.26179087
    4 H                    1.0000    -0.93049890     0.24932643    -0.26179087

         Total DFT energy =      -56.167831186701

 Vector    1  Occ=2.000000D+00  E=-1.398706D+01

 Vector    2  Occ=2.000000D+00  E=-7.391392D-01

 Vector    3  Occ=2.000000D+00  E=-3.808268D-01

 Vector    4  Occ=2.000000D+00  E=-3.808267D-01

 Vector    5  Occ=2.000000D+00  E=-1.915705D-01

 Vector    6  Occ=0.000000D+00  E= 8.162741D-03

 Vector    7  Occ=0.000000D+00  E= 8.138703D-02

 Vector    8  Occ=0.000000D+00  E= 8.138704D-02

 Vector    9  Occ=0.000000D+00  E= 1.115210D-01

 Vector   10  Occ=0.000000D+00  E= 1.768706D-01

 Vector   11  Occ=0.000000D+00  E= 1.768706D-01

 Vector   12  Occ=0.000000D+00  E= 2.366251D-01

 Vector   13  Occ=0.000000D+00  E= 8.291387D-01

 Vector   14  Occ=0.000000D+00  E= 8.291388D-01

 Vector   15  Occ=0.000000D+00  E= 8.608621D-01

 Zero-Point correction to Energy  =   20.407 kcal/mol  (  0.032521 au)
 Thermal correction to Energy     =   22.205 kcal/mol  (  0.035386 au)
 Thermal correction to Enthalpy   =   22.797 kcal/mol  (  0.036330 au)
 Total Entropy                    =   46.099 cal/mol-K
   - Translational                =   34.425 cal/mol-K (mol. weight =  17.0265)
   - Rotational                   =   11.588 cal/mol-K (symmetry #  =        3)
   - Vibrational                  =    0.085 cal/mol-K
   - Translational                  =    2.979 cal/mol-K
   - Rotational                     =    2.979 cal/mol-K
   - Vibrational                    =    0.402 cal/mol-K
 P.Frequency       -0.00        0.00        0.00        0.00        0.00        0.00
 P.Frequency     1060.68     1654.28     1654.28     3220.33     3346.13     3346.13

 Normal Eigenvalue ||           Projected Infra Red Intensities
  Mode   [cm**-1]  || [atomic units] [(debye/angs)**2] [(KM/mol)] [arbitrary]
 ------ ---------- || -------------- ----------------- ---------- -----------
    1       -0.000 ||    0.078003           1.800        76.041      21.756
    2        0.000 ||    0.000273           0.006         0.266       0.076
    3        0.000 ||    0.014387           0.332        14.025       4.013
    4        0.000 ||    0.063499           1.465        61.902      17.710
    5        0.000 ||    0.000154           0.004         0.151       0.043
    6        0.000 ||    0.000066           0.002         0.064       0.018
    7     1060.682 ||    0.208378           4.807       203.137      58.119
    8     1654.278 ||    0.027139           0.626        26.456       7.569
    9     1654.278 ||    0.027139           0.626        26.456       7.569
   10     3220.327 ||    0.010977           0.253        10.701       3.062
   11     3346.130 ||    0.000116           0.003         0.113       0.032
   12     3346.130 ||    0.000116           0.003         0.113       0.032
 ----------------------------------------------------------------------------

         Total DFT energy =      -56.184840560478

                       DFT Final Molecular Orbital Analysis
                       ------------------------------------

 Vector    1  Occ=2.000000D+00  E=-1.395953D+01  Symmetry=a1

 Vector    2  Occ=2.000000D+00  E=-7.391475D-01  Symmetry=a1

 Vector    3  Occ=2.000000D+00  E=-3.813677D-01  Symmetry=e

 Vector    4  Occ=2.000000D+00  E=-3.813677D-01  Symmetry=e

 Vector    5  Occ=2.000000D+00  E=-1.917783D-01  Symmetry=a1

 Vector    6  Occ=0.000000D+00  E= 1.285069D-03  Symmetry=a1

 Vector    7  Occ=0.000000D+00  E= 7.904185D-02  Symmetry=e

 Vector    8  Occ=0.000000D+00  E= 7.904185D-02  Symmetry=e

 Vector    9  Occ=0.000000D+00  E= 1.066314D-01  Symmetry=a1

 Vector   10  Occ=0.000000D+00  E= 1.360635D-01  Symmetry=e

 Vector   11  Occ=0.000000D+00  E= 1.360635D-01  Symmetry=e

 Vector   12  Occ=0.000000D+00  E= 1.851727D-01  Symmetry=a1

 Vector   13  Occ=0.000000D+00  E= 4.657704D-01  Symmetry=e

 Vector   14  Occ=0.000000D+00  E= 4.657704D-01  Symmetry=e

 Vector   15  Occ=0.000000D+00  E= 5.943182D-01  Symmetry=a1

     Multipole analysis of the density
     ---------------------------------

     L   x y z        total         alpha         beta         nuclear
     -   - - -        -----         -----         ----         -------
     0   0 0 0     -0.000000     -5.000000     -5.000000     10.000000

     1   1 0 0     -0.000000     -0.000000     -0.000000      0.000000
     1   0 1 0     -0.000000     -0.000000     -0.000000     -0.000000
     1   0 0 1     -0.699809     -0.477239     -0.477239      0.254669

     2   2 0 0     -4.950148     -4.960513     -4.960513      4.970878
     2   1 1 0     -0.000000     -0.000000     -0.000000     -0.000000
     2   1 0 1      0.000000      0.000000      0.000000      0.000000
     2   0 2 0     -4.950148     -4.960513     -4.960513      4.970878
     2   0 1 1      0.000000      0.000000      0.000000      0.000000

 Total times  cpu:       19.3s     wall:       19.9s
