         Total DFT energy =       -1.120525219666

 Vector    1  Occ=2.000000D+00  E=-3.577637D-01  Symmetry=a1g

 Vector    2  Occ=0.000000D+00  E= 5.481671D-02  Symmetry=a2u

 Vector    3  Occ=0.000000D+00  E= 1.888366D-01  Symmetry=a1g

 Vector    4  Occ=0.000000D+00  E= 4.602614D-01  Symmetry=a2u

 Vector    5  Occ=0.000000D+00  E= 2.063817D+00  Symmetry=a1g

 Vector    6  Occ=0.000000D+00  E= 2.329408D+00  Symmetry=a2u

@ Step       Energy      Delta E   Gmax     Grms     Xrms     Xmax   Walltime
@ ---- ---------------- -------- -------- -------- -------- -------- --------
@    0      -1.12052522  0.0D+00  0.00888  0.00888  0.00000  0.00000      0.2
         Total DFT energy =       -1.120626271044

 Vector    1  Occ=2.000000D+00  E=-3.548117D-01  Symmetry=a1g

 Vector    2  Occ=0.000000D+00  E= 5.139138D-02  Symmetry=a2u

 Vector    3  Occ=0.000000D+00  E= 1.898967D-01  Symmetry=a1g

 Vector    4  Occ=0.000000D+00  E= 4.529316D-01  Symmetry=a2u

 Vector    5  Occ=0.000000D+00  E= 2.085176D+00  Symmetry=a1g

 Vector    6  Occ=0.000000D+00  E= 2.309475D+00  Symmetry=a2u

         Total DFT energy =       -1.120635298274

 Vector    1  Occ=2.000000D+00  E=-3.554860D-01  Symmetry=a1g

 Vector    2  Occ=0.000000D+00  E= 5.218614D-02  Symmetry=a2u

 Vector    3  Occ=0.000000D+00  E= 1.896515D-01  Symmetry=a1g

 Vector    4  Occ=0.000000D+00  E= 4.546058D-01  Symmetry=a2u

 Vector    5  Occ=0.000000D+00  E= 2.080308D+00  Symmetry=a1g

 Vector    6  Occ=0.000000D+00  E= 2.313941D+00  Symmetry=a2u

@    1      -1.12063530 -1.1D-04  0.00005  0.00005  0.00721  0.01250      0.4
         Total DFT energy =       -1.120635302022

 Vector    1  Occ=2.000000D+00  E=-3.554744D-01  Symmetry=a1g

 Vector    2  Occ=0.000000D+00  E= 5.217022D-02  Symmetry=a2u

 Vector    3  Occ=0.000000D+00  E= 1.896555D-01  Symmetry=a1g

 Vector    4  Occ=0.000000D+00  E= 4.545724D-01  Symmetry=a2u

 Vector    5  Occ=0.000000D+00  E= 2.080401D+00  Symmetry=a1g

 Vector    6  Occ=0.000000D+00  E= 2.313853D+00  Symmetry=a2u

         Total DFT energy =     -1.120635302022
@    2      -1.12063530 -3.7D-09  0.00000  0.00000  0.00004  0.00007      0.6
@    2      -1.12063530 -3.7D-09  0.00000  0.00000  0.00004  0.00007      0.6

 Output coordinates in angstroms (scale by  1.889725989 to convert to a.u.)

  No.       Tag          Charge          X              Y              Z
 ---- ---------------- ---------- -------------- -------------- --------------
    1 H                    1.0000     0.00000000     0.00000000    -0.37735047
    2 H                    1.0000     0.00000000     0.00000000     0.37735047

         Total DFT energy =       -1.120635249803

 Vector    1  Occ=2.000000D+00  E=-3.554729D-01

 Vector    2  Occ=0.000000D+00  E= 5.217085D-02

 Vector    3  Occ=0.000000D+00  E= 1.896560D-01

 Vector    4  Occ=0.000000D+00  E= 4.545733D-01

 Vector    5  Occ=0.000000D+00  E= 2.080403D+00

 Vector    6  Occ=0.000000D+00  E= 2.313855D+00

 Zero-Point correction to Energy  =    6.018 kcal/mol  (  0.009591 au)
 Thermal correction to Energy     =    7.499 kcal/mol  (  0.011950 au)
 Thermal correction to Enthalpy   =    8.091 kcal/mol  (  0.012894 au)
 Total Entropy                    =   31.182 cal/mol-K
   - Translational                =   28.068 cal/mol-K (mol. weight =   2.0156)
   - Rotational                   =    3.114 cal/mol-K (symmetry #  =        2)
   - Vibrational                  =    0.000 cal/mol-K
   - Translational                  =    2.979 cal/mol-K
   - Rotational                     =    1.986 cal/mol-K
   - Vibrational                    =    0.000 cal/mol-K
 P.Frequency       -0.00        0.00        0.00        0.00        0.00     4211.97

 Normal Eigenvalue ||           Projected Infra Red Intensities
  Mode   [cm**-1]  || [atomic units] [(debye/angs)**2] [(KM/mol)] [arbitrary]
 ------ ---------- || -------------- ----------------- ---------- -----------
    1       -0.000 ||    0.000000           0.000         0.000       0.204
    2        0.000 ||    0.000000           0.000         0.000       0.230
    3        0.000 ||    0.000000           0.000         0.000       0.236
    4        0.000 ||    0.000000           0.000         0.000      17.541
    5        0.000 ||    0.000000           0.000         0.000      30.688
    6     4211.975 ||    0.000000           0.000         0.000      11.100
 ----------------------------------------------------------------------------

         Total DFT energy =       -1.176527179907

                       DFT Final Molecular Orbital Analysis
                       ------------------------------------

 Vector    1  Occ=2.000000D+00  E=-4.343720D-01  Symmetry=a1g

 Vector    2  Occ=0.000000D+00  E= 5.632527D-02  Symmetry=a2u

 Vector    3  Occ=0.000000D+00  E= 1.970167D-01  Symmetry=a1g

 Vector    4  Occ=0.000000D+00  E= 4.697347D-01  Symmetry=a2u

 Vector    5  Occ=0.000000D+00  E= 2.123773D+00  Symmetry=a1g

 Vector    6  Occ=0.000000D+00  E= 2.370620D+00  Symmetry=a2u

     Multipole analysis of the density
     ---------------------------------

     L   x y z        total         alpha         beta         nuclear
     -   - - -        -----         -----         ----         -------
     0   0 0 0     -0.000000     -1.000000     -1.000000      2.000000

     1   1 0 0      0.000000      0.000000      0.000000      0.000000
     1   0 1 0      0.000000      0.000000      0.000000      0.000000
     1   0 0 1     -0.000000     -0.000000     -0.000000      0.000000

     2   2 0 0     -1.548143     -0.774072     -0.774072      0.000000
     2   1 1 0      0.000000      0.000000      0.000000      0.000000
     2   1 0 1      0.000000      0.000000      0.000000      0.000000
     2   0 2 0     -1.548143     -0.774072     -0.774072      0.000000
     2   0 1 1      0.000000      0.000000      0.000000      0.000000

 Total times  cpu:        1.3s     wall:        1.7s
